
     Program PWSCF v.7.2 starts on 29Jan2024 at 11:21:27 

     This program is part of the open-source Quantum ESPRESSO suite
     for quantum simulation of materials; please cite
         "P. Giannozzi et al., J. Phys.:Condens. Matter 21 395502 (2009);
         "P. Giannozzi et al., J. Phys.:Condens. Matter 29 465901 (2017);
         "P. Giannozzi et al., J. Chem. Phys. 152 154105 (2020);
          URL http://www.quantum-espresso.org", 
     in publications or presentations arising from this work. More details at
     http://www.quantum-espresso.org/quote

     Parallel version (MPI), running on    32 processors

     MPI processes distributed on     2 nodes
     126387 MiB available memory on the printing compute node when the environment starts
 
     Reading input from relax.in

     Current dimensions of program PWSCF are:
     Max number of different atomic species (ntypx) = 10
     Max number of k-points (npk) =  40000
     Max angular momentum in pseudopotentials (lmaxx) =  4
     Message from routine setup:
     using ibrav=0 with symmetry is DISCOURAGED, use correct ibrav instead
 
     band groups division:  nbgrp     =       2
     R & G space division:  proc/nbgrp/npool/nimage =      16
     Subspace diagonalization in iterative solution of the eigenvalue problem:
     one sub-group per band group will be used
     scalapack distributed-memory algorithm (size of sub-group:  2*  2 procs)

 
     Parallelization info
     --------------------
     sticks:   dense  smooth     PW     G-vecs:    dense   smooth      PW
     Min         360     360     97                20692    20692    2915
     Max         361     361     98                20699    20699    2920
     Sum        5761    5761   1565               331093   331093   46681
 
     Using Slab Decomposition
 


     bravais-lattice index     =            0
     lattice parameter (alat)  =      13.4862  a.u.
     unit-cell volume          =    2452.8359 (a.u.)^3
     number of atoms/cell      =           63
     number of atomic types    =            2
     number of electrons       =       254.00 (up: 128.00, down: 126.00)
     number of Kohn-Sham states=          152
     kinetic-energy cutoff     =     100.0000  Ry
     charge density cutoff     =     400.0000  Ry
     scf convergence threshold =      1.0E-09
     mixing beta               =       0.5000
     number of iterations used =            8  plain     mixing
     energy convergence thresh.=      1.0E-05
     force convergence thresh. =      1.0E-04
     Exchange-correlation= PBE
                           (   1   4   3   4   0   0   0)
     nstep                     =           50


     celldm(1)=  13.486197  celldm(2)=   0.000000  celldm(3)=   0.000000
     celldm(4)=   0.000000  celldm(5)=   0.000000  celldm(6)=   0.000000

     crystal axes: (cart. coord. in units of alat)
               a(1) = (   1.000000   0.000000   0.000000 )  
               a(2) = (   0.000000   1.000000   0.000000 )  
               a(3) = (   0.000000   0.000000   1.000000 )  

     reciprocal axes: (cart. coord. in units 2 pi/alat)
               b(1) = (  1.000000  0.000000  0.000000 )  
               b(2) = (  0.000000  1.000000  0.000000 )  
               b(3) = (  0.000000  0.000000  1.000000 )  


     PseudoPot. # 1 for C  read from file:
     ~/Pseudopotential/pseudo-ONCV-proj/C_ONCV_PBE-1.0.upf
     MD5 check sum: Not computed, couldn't open file
     Pseudo is Norm-conserving, Zval =  4.0
     Generated using ONCVPSP code by D. R. Hamann
     Using radial grid of 1248 points,  4 beta functions with: 
                l(1) =   0
                l(2) =   0
                l(3) =   1
                l(4) =   1

     PseudoPot. # 2 for N  read from file:
     ~/Pseudopotential/pseudo-ONCV-proj/N_ONCV_PBE-1.0.upf
     MD5 check sum: Not computed, couldn't open file
     Pseudo is Norm-conserving, Zval =  5.0
     Generated using ONCVPSP code by D. R. Hamann
     Using radial grid of 1058 points,  4 beta functions with: 
                l(1) =   0
                l(2) =   0
                l(3) =   1
                l(4) =   1

     atomic species   valence    mass     pseudopotential
        C              4.00    12.01110     C ( 1.00)
        N              5.00    14.00670     N ( 1.00)

     Starting magnetic structure 
     atomic species   magnetization
        C            0.000
        N            1.000

      6 Sym. Ops. (no inversion) found


                                    s                        frac. trans.

      isym =  1     identity                                     

 cryst.   s( 1) = (     1          0          0      )
                  (     0          1          0      )
                  (     0          0          1      )

 cart.    s( 1) = (  1.0000000  0.0000000  0.0000000 )
                  (  0.0000000  1.0000000  0.0000000 )
                  (  0.0000000  0.0000000  1.0000000 )


      isym =  2     120 deg rotation - cart. axis [-1,1,1]       

 cryst.   s( 2) = (     0          0         -1      )
                  (    -1          0          0      )
                  (     0          1          0      )

 cart.    s( 2) = (  0.0000000 -1.0000000  0.0000000 )
                  (  0.0000000  0.0000000  1.0000000 )
                  ( -1.0000000  0.0000000  0.0000000 )


      isym =  3     120 deg rotation - cart. axis [1,-1,-1]      

 cryst.   s( 3) = (     0         -1          0      )
                  (     0          0          1      )
                  (    -1          0          0      )

 cart.    s( 3) = (  0.0000000  0.0000000 -1.0000000 )
                  ( -1.0000000  0.0000000  0.0000000 )
                  (  0.0000000  1.0000000  0.0000000 )


      isym =  4     inv. 180 deg rotation - cart. axis [1,1,0]   

 cryst.   s( 4) = (     0         -1          0      )
                  (    -1          0          0      )
                  (     0          0          1      )

 cart.    s( 4) = (  0.0000000 -1.0000000  0.0000000 )
                  ( -1.0000000  0.0000000  0.0000000 )
                  (  0.0000000  0.0000000  1.0000000 )


      isym =  5     inv. 180 deg rotation - cart. axis [1,0,1]   

 cryst.   s( 5) = (     0          0         -1      )
                  (     0          1          0      )
                  (    -1          0          0      )

 cart.    s( 5) = (  0.0000000  0.0000000 -1.0000000 )
                  (  0.0000000  1.0000000  0.0000000 )
                  ( -1.0000000  0.0000000  0.0000000 )


      isym =  6     inv. 180 deg rotation - cart. axis [0,1,-1]  

 cryst.   s( 6) = (     1          0          0      )
                  (     0          0          1      )
                  (     0          1          0      )

 cart.    s( 6) = (  1.0000000  0.0000000  0.0000000 )
                  (  0.0000000  0.0000000  1.0000000 )
                  (  0.0000000  1.0000000  0.0000000 )


   Cartesian axes

     site n.     atom                  positions (alat units)
         1           C   tau(   1) = (   0.0001471  -0.0001471  -0.0001471  )
         2           C   tau(   2) = (   0.7496408   0.2503593  -0.0008934  )
         3           C   tau(   3) = (   0.5000834   0.4999166  -0.0005072  )
         4           C   tau(   4) = (   0.2504493   0.7495507  -0.0008852  )
         5           C   tau(   5) = (   0.0008934   0.2503593   0.2503593  )
         6           C   tau(   6) = (   0.7485095   0.4964412   0.2514906  )
         7           C   tau(   7) = (   0.4978091   0.7487320   0.2508993  )
         8           C   tau(   8) = (   0.2508551   0.0008596   0.2500575  )
         9           C   tau(   9) = (   0.0005072   0.4999166   0.4999167  )
        10           C   tau(  10) = (   0.7491007   0.7487320   0.5021910  )
        11           C   tau(  11) = (   0.5000834  -0.0005072   0.4999166  )
        12           C   tau(  12) = (   0.2512680   0.2508993   0.5021910  )
        13           C   tau(  13) = (   0.0008852   0.7495507   0.7495507  )
        14           C   tau(  14) = (   0.7499425   0.0008596   0.7491449  )
        15           C   tau(  15) = (   0.4978091   0.2508993   0.7487321  )
        16           C   tau(  16) = (   0.2513219   0.4982670   0.7486781  )
        17           C   tau(  17) = (   0.7496408  -0.0008934   0.2503593  )
        18           C   tau(  18) = (   0.5035588   0.2514906   0.2514906  )
        19           C   tau(  19) = (   0.2512679   0.5021909   0.2508993  )
        20           C   tau(  20) = (  -0.0008596   0.7491449   0.2500576  )
        21           C   tau(  21) = (   0.7485095   0.2514906   0.4964412  )
        22           C   tau(  22) = (   0.2513219   0.7486781   0.4982671  )
        23           C   tau(  23) = (  -0.0005589   0.0005589   0.5002004  )
        24           C   tau(  24) = (   0.7491007   0.5021909   0.7487320  )
        25           C   tau(  25) = (   0.5017331   0.7486781   0.7486781  )
        26           C   tau(  26) = (   0.2504493  -0.0008852   0.7495507  )
        27           C   tau(  27) = (  -0.0008596   0.2500575   0.7491449  )
        28           C   tau(  28) = (   0.7499425   0.7491449   0.0008596  )
        29           C   tau(  29) = (   0.4997996   0.0005589   0.0005589  )
        30           C   tau(  30) = (   0.2508551   0.2500575   0.0008596  )
        31           C   tau(  31) = (  -0.0005589   0.5002004   0.0005589  )
        32           C   tau(  32) = (   0.1256024   0.1252966   0.1252966  )
        33           C   tau(  33) = (   0.8753819   0.3747495   0.1246182  )
        34           C   tau(  34) = (   0.6235839   0.6234915   0.1265028  )
        35           C   tau(  35) = (   0.3757077   0.8762336   0.1234866  )
        36           C   tau(  36) = (   0.1264496   0.3756972   0.3756973  )
        37           C   tau(  37) = (   0.8734972   0.6234915   0.3764162  )
        38           C   tau(  38) = (   0.6243028   0.8735504   0.3756973  )
        39           C   tau(  39) = (   0.3765085   0.1265028   0.3764161  )
        40           C   tau(  40) = (   0.1263419   0.6242391   0.6242392  )
        41           C   tau(  41) = (   0.8765134   0.8762336   0.6242923  )
        42           C   tau(  42) = (   0.6235839   0.1265028   0.6234915  )
        43           C   tau(  43) = (   0.3633548   0.3617071   0.6366452  )
        44           C   tau(  44) = (   0.1255014   0.8744987   0.8744987  )
        45           C   tau(  45) = (   0.8747035   0.1252965   0.8743976  )
        46           C   tau(  46) = (   0.6243028   0.3756972   0.8735505  )
        47           C   tau(  47) = (   0.3757608   0.6242392   0.8736582  )
        48           C   tau(  48) = (   0.8753819   0.1246181   0.3747495  )
        49           C   tau(  49) = (   0.3633548   0.6366452   0.3617071  )
        50           C   tau(  50) = (   0.1236925   0.8763075   0.3756017  )
        51           C   tau(  51) = (   0.8734973   0.3764161   0.6234915  )
        52           C   tau(  52) = (   0.6382929   0.6366452   0.6366452  )
        53           C   tau(  53) = (   0.3757608   0.8736581   0.6242392  )
        54           C   tau(  54) = (   0.1237663   0.1234866   0.6242924  )
        55           C   tau(  55) = (   0.8765134   0.6242922   0.8762337  )
        56           C   tau(  56) = (   0.6243983   0.8763076   0.8763076  )
        57           C   tau(  57) = (   0.3757077   0.1234866   0.8762336  )
        58           C   tau(  58) = (   0.1236925   0.3756017   0.8763076  )
        59           C   tau(  59) = (   0.8747035   0.8743975   0.1252966  )
        60           C   tau(  60) = (   0.6252505   0.1246182   0.1246182  )
        61           C   tau(  61) = (   0.3765085   0.3764161   0.1265028  )
        62           C   tau(  62) = (   0.1237663   0.6242923   0.1234866  )
        63           N   tau(  63) = (   0.6319693   0.3680307   0.3680307  )

   Crystallographic axes

     site n.     atom                  positions (cryst. coord.)
         1           C   tau(   1) = (  0.0001471 -0.0001471 -0.0001471  )
         2           C   tau(   2) = (  0.7496408  0.2503593 -0.0008934  )
         3           C   tau(   3) = (  0.5000834  0.4999166 -0.0005072  )
         4           C   tau(   4) = (  0.2504493  0.7495507 -0.0008852  )
         5           C   tau(   5) = (  0.0008934  0.2503593  0.2503593  )
         6           C   tau(   6) = (  0.7485095  0.4964412  0.2514906  )
         7           C   tau(   7) = (  0.4978091  0.7487320  0.2508993  )
         8           C   tau(   8) = (  0.2508551  0.0008596  0.2500575  )
         9           C   tau(   9) = (  0.0005072  0.4999166  0.4999167  )
        10           C   tau(  10) = (  0.7491007  0.7487320  0.5021910  )
        11           C   tau(  11) = (  0.5000834 -0.0005072  0.4999166  )
        12           C   tau(  12) = (  0.2512680  0.2508993  0.5021910  )
        13           C   tau(  13) = (  0.0008852  0.7495507  0.7495507  )
        14           C   tau(  14) = (  0.7499425  0.0008596  0.7491449  )
        15           C   tau(  15) = (  0.4978091  0.2508993  0.7487321  )
        16           C   tau(  16) = (  0.2513219  0.4982670  0.7486781  )
        17           C   tau(  17) = (  0.7496408 -0.0008934  0.2503593  )
        18           C   tau(  18) = (  0.5035588  0.2514906  0.2514906  )
        19           C   tau(  19) = (  0.2512679  0.5021909  0.2508993  )
        20           C   tau(  20) = ( -0.0008596  0.7491449  0.2500576  )
        21           C   tau(  21) = (  0.7485095  0.2514906  0.4964412  )
        22           C   tau(  22) = (  0.2513219  0.7486781  0.4982671  )
        23           C   tau(  23) = ( -0.0005589  0.0005589  0.5002004  )
        24           C   tau(  24) = (  0.7491007  0.5021909  0.7487320  )
        25           C   tau(  25) = (  0.5017331  0.7486781  0.7486781  )
        26           C   tau(  26) = (  0.2504493 -0.0008852  0.7495507  )
        27           C   tau(  27) = ( -0.0008596  0.2500575  0.7491449  )
        28           C   tau(  28) = (  0.7499425  0.7491449  0.0008596  )
        29           C   tau(  29) = (  0.4997996  0.0005589  0.0005589  )
        30           C   tau(  30) = (  0.2508551  0.2500575  0.0008596  )
        31           C   tau(  31) = ( -0.0005589  0.5002004  0.0005589  )
        32           C   tau(  32) = (  0.1256024  0.1252966  0.1252966  )
        33           C   tau(  33) = (  0.8753819  0.3747495  0.1246182  )
        34           C   tau(  34) = (  0.6235839  0.6234915  0.1265028  )
        35           C   tau(  35) = (  0.3757077  0.8762336  0.1234866  )
        36           C   tau(  36) = (  0.1264496  0.3756972  0.3756973  )
        37           C   tau(  37) = (  0.8734972  0.6234915  0.3764162  )
        38           C   tau(  38) = (  0.6243028  0.8735504  0.3756973  )
        39           C   tau(  39) = (  0.3765085  0.1265028  0.3764161  )
        40           C   tau(  40) = (  0.1263419  0.6242391  0.6242392  )
        41           C   tau(  41) = (  0.8765134  0.8762336  0.6242923  )
        42           C   tau(  42) = (  0.6235839  0.1265028  0.6234915  )
        43           C   tau(  43) = (  0.3633548  0.3617071  0.6366452  )
        44           C   tau(  44) = (  0.1255014  0.8744987  0.8744987  )
        45           C   tau(  45) = (  0.8747035  0.1252965  0.8743976  )
        46           C   tau(  46) = (  0.6243028  0.3756972  0.8735505  )
        47           C   tau(  47) = (  0.3757608  0.6242392  0.8736582  )
        48           C   tau(  48) = (  0.8753819  0.1246181  0.3747495  )
        49           C   tau(  49) = (  0.3633548  0.6366452  0.3617071  )
        50           C   tau(  50) = (  0.1236925  0.8763075  0.3756017  )
        51           C   tau(  51) = (  0.8734973  0.3764161  0.6234915  )
        52           C   tau(  52) = (  0.6382929  0.6366452  0.6366452  )
        53           C   tau(  53) = (  0.3757608  0.8736581  0.6242392  )
        54           C   tau(  54) = (  0.1237663  0.1234866  0.6242924  )
        55           C   tau(  55) = (  0.8765134  0.6242922  0.8762337  )
        56           C   tau(  56) = (  0.6243983  0.8763076  0.8763076  )
        57           C   tau(  57) = (  0.3757077  0.1234866  0.8762336  )
        58           C   tau(  58) = (  0.1236925  0.3756017  0.8763076  )
        59           C   tau(  59) = (  0.8747035  0.8743975  0.1252966  )
        60           C   tau(  60) = (  0.6252505  0.1246182  0.1246182  )
        61           C   tau(  61) = (  0.3765085  0.3764161  0.1265028  )
        62           C   tau(  62) = (  0.1237663  0.6242923  0.1234866  )
        63           N   tau(  63) = (  0.6319693  0.3680307  0.3680307  )

     number of k points=     4
                       cart. coord. in units 2pi/alat
        k(    1) = (   0.0000000   0.0000000   0.0000000), wk =   0.1250000
        k(    2) = (   0.0000000   0.0000000  -0.5000000), wk =   0.3750000
        k(    3) = (   0.0000000  -0.5000000  -0.5000000), wk =   0.3750000
        k(    4) = (  -0.5000000  -0.5000000  -0.5000000), wk =   0.1250000

                       cryst. coord.
        k(    1) = (   0.0000000   0.0000000   0.0000000), wk =   0.1250000
        k(    2) = (   0.0000000   0.0000000  -0.5000000), wk =   0.3750000
        k(    3) = (   0.0000000  -0.5000000  -0.5000000), wk =   0.3750000
        k(    4) = (  -0.5000000  -0.5000000  -0.5000000), wk =   0.1250000

     Dense  grid:   331093 G-vectors     FFT dimensions: (  90,  90,  90)

     Occupations read from input 

      Spin-up

        1.0000   1.0000   1.0000   1.0000   1.0000   1.0000   1.0000   1.0000
        1.0000   1.0000   1.0000   1.0000   1.0000   1.0000   1.0000   1.0000
        1.0000   1.0000   1.0000   1.0000   1.0000   1.0000   1.0000   1.0000
        1.0000   1.0000   1.0000   1.0000   1.0000   1.0000   1.0000   1.0000
        1.0000   1.0000   1.0000   1.0000   1.0000   1.0000   1.0000   1.0000
        1.0000   1.0000   1.0000   1.0000   1.0000   1.0000   1.0000   1.0000
        1.0000   1.0000   1.0000   1.0000   1.0000   1.0000   1.0000   1.0000
        1.0000   1.0000   1.0000   1.0000   1.0000   1.0000   1.0000   1.0000
        1.0000   1.0000   1.0000   1.0000   1.0000   1.0000   1.0000   1.0000
        1.0000   1.0000   1.0000   1.0000   1.0000   1.0000   1.0000   1.0000
        1.0000   1.0000   1.0000   1.0000   1.0000   1.0000   1.0000   1.0000
        1.0000   1.0000   1.0000   1.0000   1.0000   1.0000   1.0000   1.0000
        1.0000   1.0000   1.0000   1.0000   1.0000   1.0000   1.0000   1.0000
        1.0000   1.0000   1.0000   1.0000   1.0000   1.0000   1.0000   1.0000
        1.0000   1.0000   1.0000   1.0000   1.0000   1.0000   1.0000   1.0000
        1.0000   1.0000   1.0000   1.0000   1.0000   1.0000   1.0000   1.0000
        0.0000   0.0000   0.0000   0.0000   0.0000   0.0000   0.0000   0.0000
        0.0000   0.0000   0.0000   0.0000   0.0000   0.0000   0.0000   0.0000
        0.0000   0.0000   0.0000   0.0000   0.0000   0.0000   0.0000   0.0000

      Spin-down

        1.0000   1.0000   1.0000   1.0000   1.0000   1.0000   1.0000   1.0000
        1.0000   1.0000   1.0000   1.0000   1.0000   1.0000   1.0000   1.0000
        1.0000   1.0000   1.0000   1.0000   1.0000   1.0000   1.0000   1.0000
        1.0000   1.0000   1.0000   1.0000   1.0000   1.0000   1.0000   1.0000
        1.0000   1.0000   1.0000   1.0000   1.0000   1.0000   1.0000   1.0000
        1.0000   1.0000   1.0000   1.0000   1.0000   1.0000   1.0000   1.0000
        1.0000   1.0000   1.0000   1.0000   1.0000   1.0000   1.0000   1.0000
        1.0000   1.0000   1.0000   1.0000   1.0000   1.0000   1.0000   1.0000
        1.0000   1.0000   1.0000   1.0000   1.0000   1.0000   1.0000   1.0000
        1.0000   1.0000   1.0000   1.0000   1.0000   1.0000   1.0000   1.0000
        1.0000   1.0000   1.0000   1.0000   1.0000   1.0000   1.0000   1.0000
        1.0000   1.0000   1.0000   1.0000   1.0000   1.0000   1.0000   1.0000
        1.0000   1.0000   1.0000   1.0000   1.0000   1.0000   1.0000   1.0000
        1.0000   1.0000   1.0000   1.0000   1.0000   1.0000   1.0000   1.0000
        1.0000   1.0000   1.0000   1.0000   1.0000   1.0000   1.0000   1.0000
        1.0000   1.0000   1.0000   1.0000   1.0000   0.0000   1.0000   0.0000
        0.0000   0.0000   0.0000   0.0000   0.0000   0.0000   0.0000   0.0000
        0.0000   0.0000   0.0000   0.0000   0.0000   0.0000   0.0000   0.0000
        0.0000   0.0000   0.0000   0.0000   0.0000   0.0000   0.0000   0.0000

     Dynamical RAM for                 wfc:       6.00 MB

     Dynamical RAM for     wfc (w. buffer):      54.02 MB

     Dynamical RAM for           str. fact:       0.63 MB

     Dynamical RAM for           local pot:       0.00 MB

     Dynamical RAM for          nlocal pot:      19.90 MB

     Dynamical RAM for                qrad:       0.92 MB

     Dynamical RAM for          rho,v,vnew:       4.12 MB

     Dynamical RAM for               rhoin:       1.37 MB

     Dynamical RAM for            rho*nmix:      10.10 MB

     Dynamical RAM for           G-vectors:       1.34 MB

     Dynamical RAM for          h,s,v(r/c):       1.06 MB

     Dynamical RAM for          <psi|beta>:       1.17 MB

     Dynamical RAM for                 psi:      12.00 MB

     Dynamical RAM for                hpsi:      12.00 MB

     Dynamical RAM for      wfcinit/wfcrot:      21.36 MB

     Estimated static dynamical RAM per process >      85.48 MB

     Estimated max dynamical RAM per process >     121.82 MB

     Estimated total dynamical RAM >       3.81 GB
     Generating pointlists ...
     new r_m :   0.0855 (alat units)  1.1525 (a.u.) for type    1
     new r_m :   0.0862 (alat units)  1.1623 (a.u.) for type    2

     Initial potential from superposition of free atoms

     starting charge     252.9972, renormalised to     254.0000
     Starting wfcs are  252 randomized atomic wfcs

     total cpu time spent up to now is        4.2 secs

     Self-consistent Calculation

     iteration #  1     ecut=   100.00 Ry     beta= 0.50
     Davidson diagonalization with overlap

---- Real-time Memory Report at c_bands before calling an iterative solver
           276 MiB given to the printing process from OS
             0 MiB allocation reported by mallinfo(arena+hblkhd)
        124324 MiB available memory on the node where the printing process lives
------------------
     ethr =  1.00E-02,  avg # of iterations =  3.0

     total cpu time spent up to now is        9.1 secs

     total energy              =    -724.00764784 Ry
     estimated scf accuracy    <       4.29344118 Ry

     total magnetization       =     2.00 Bohr mag/cell
     absolute magnetization    =     3.03 Bohr mag/cell

     iteration #  2     ecut=   100.00 Ry     beta= 0.50
     Davidson diagonalization with overlap

---- Real-time Memory Report at c_bands before calling an iterative solver
           326 MiB given to the printing process from OS
             0 MiB allocation reported by mallinfo(arena+hblkhd)
        124111 MiB available memory on the node where the printing process lives
------------------
     ethr =  1.69E-03,  avg # of iterations =  3.8

     total cpu time spent up to now is       12.8 secs

     total energy              =    -724.31954348 Ry
     estimated scf accuracy    <       1.60916956 Ry

     total magnetization       =     2.00 Bohr mag/cell
     absolute magnetization    =     2.73 Bohr mag/cell

     iteration #  3     ecut=   100.00 Ry     beta= 0.50
     Davidson diagonalization with overlap

---- Real-time Memory Report at c_bands before calling an iterative solver
           342 MiB given to the printing process from OS
             0 MiB allocation reported by mallinfo(arena+hblkhd)
        124076 MiB available memory on the node where the printing process lives
------------------
     ethr =  6.34E-04,  avg # of iterations =  7.4

     total cpu time spent up to now is       17.4 secs

     total energy              =    -724.61653874 Ry
     estimated scf accuracy    <       0.34279591 Ry

     total magnetization       =     2.00 Bohr mag/cell
     absolute magnetization    =     2.50 Bohr mag/cell

     iteration #  4     ecut=   100.00 Ry     beta= 0.50
     Davidson diagonalization with overlap

---- Real-time Memory Report at c_bands before calling an iterative solver
           349 MiB given to the printing process from OS
             0 MiB allocation reported by mallinfo(arena+hblkhd)
        124051 MiB available memory on the node where the printing process lives
------------------
     ethr =  1.35E-04,  avg # of iterations = 12.6

     total cpu time spent up to now is       23.7 secs

     total energy              =    -724.68718801 Ry
     estimated scf accuracy    <       0.03060419 Ry

     total magnetization       =     2.00 Bohr mag/cell
     absolute magnetization    =     2.40 Bohr mag/cell

     iteration #  5     ecut=   100.00 Ry     beta= 0.50
     Davidson diagonalization with overlap

---- Real-time Memory Report at c_bands before calling an iterative solver
           352 MiB given to the printing process from OS
             0 MiB allocation reported by mallinfo(arena+hblkhd)
        124017 MiB available memory on the node where the printing process lives
------------------
     ethr =  1.20E-05,  avg # of iterations = 10.4

     total cpu time spent up to now is       29.8 secs

     total energy              =    -724.70255156 Ry
     estimated scf accuracy    <       0.00701913 Ry

     total magnetization       =     2.00 Bohr mag/cell
     absolute magnetization    =     2.34 Bohr mag/cell

     iteration #  6     ecut=   100.00 Ry     beta= 0.50
     Davidson diagonalization with overlap

---- Real-time Memory Report at c_bands before calling an iterative solver
           356 MiB given to the printing process from OS
             0 MiB allocation reported by mallinfo(arena+hblkhd)
        123981 MiB available memory on the node where the printing process lives
------------------
     ethr =  2.76E-06,  avg # of iterations =  9.0

     total cpu time spent up to now is       35.8 secs

     total energy              =    -724.70669213 Ry
     estimated scf accuracy    <       0.00136261 Ry

     total magnetization       =     2.00 Bohr mag/cell
     absolute magnetization    =     2.26 Bohr mag/cell

     iteration #  7     ecut=   100.00 Ry     beta= 0.50
     Davidson diagonalization with overlap

---- Real-time Memory Report at c_bands before calling an iterative solver
           358 MiB given to the printing process from OS
             0 MiB allocation reported by mallinfo(arena+hblkhd)
        123938 MiB available memory on the node where the printing process lives
------------------
     ethr =  5.36E-07,  avg # of iterations =  4.1

     total cpu time spent up to now is       39.9 secs

     total energy              =    -724.70748120 Ry
     estimated scf accuracy    <       0.00021736 Ry

     total magnetization       =     2.00 Bohr mag/cell
     absolute magnetization    =     2.23 Bohr mag/cell

     iteration #  8     ecut=   100.00 Ry     beta= 0.50
     Davidson diagonalization with overlap

---- Real-time Memory Report at c_bands before calling an iterative solver
           358 MiB given to the printing process from OS
             0 MiB allocation reported by mallinfo(arena+hblkhd)
        123917 MiB available memory on the node where the printing process lives
------------------
     ethr =  8.56E-08,  avg # of iterations =  4.5

     total cpu time spent up to now is       44.5 secs

     total energy              =    -724.70764784 Ry
     estimated scf accuracy    <       0.00009195 Ry

     total magnetization       =     2.00 Bohr mag/cell
     absolute magnetization    =     2.22 Bohr mag/cell

     iteration #  9     ecut=   100.00 Ry     beta= 0.50
     Davidson diagonalization with overlap

---- Real-time Memory Report at c_bands before calling an iterative solver
           358 MiB given to the printing process from OS
             0 MiB allocation reported by mallinfo(arena+hblkhd)
        123889 MiB available memory on the node where the printing process lives
------------------
     ethr =  3.62E-08,  avg # of iterations =  4.6

     total cpu time spent up to now is       48.6 secs

     total energy              =    -724.70769700 Ry
     estimated scf accuracy    <       0.00001278 Ry

     total magnetization       =     2.00 Bohr mag/cell
     absolute magnetization    =     2.21 Bohr mag/cell

     iteration # 10     ecut=   100.00 Ry     beta= 0.50
     Davidson diagonalization with overlap

---- Real-time Memory Report at c_bands before calling an iterative solver
           358 MiB given to the printing process from OS
             0 MiB allocation reported by mallinfo(arena+hblkhd)
        123861 MiB available memory on the node where the printing process lives
------------------
     ethr =  5.03E-09,  avg # of iterations =  4.8

     total cpu time spent up to now is       53.7 secs

     total energy              =    -724.70771177 Ry
     estimated scf accuracy    <       0.00000131 Ry

     total magnetization       =     2.00 Bohr mag/cell
     absolute magnetization    =     2.21 Bohr mag/cell

     iteration # 11     ecut=   100.00 Ry     beta= 0.50
     Davidson diagonalization with overlap

---- Real-time Memory Report at c_bands before calling an iterative solver
           358 MiB given to the printing process from OS
             0 MiB allocation reported by mallinfo(arena+hblkhd)
        123842 MiB available memory on the node where the printing process lives
------------------
     ethr =  5.15E-10,  avg # of iterations =  4.5

     total cpu time spent up to now is       58.7 secs

     total energy              =    -724.70771312 Ry
     estimated scf accuracy    <       0.00000027 Ry

     total magnetization       =     2.00 Bohr mag/cell
     absolute magnetization    =     2.21 Bohr mag/cell

     iteration # 12     ecut=   100.00 Ry     beta= 0.50
     Davidson diagonalization with overlap

---- Real-time Memory Report at c_bands before calling an iterative solver
           358 MiB given to the printing process from OS
             0 MiB allocation reported by mallinfo(arena+hblkhd)
        123831 MiB available memory on the node where the printing process lives
------------------
     ethr =  1.06E-10,  avg # of iterations =  4.5

     total cpu time spent up to now is       63.6 secs

     total energy              =    -724.70771344 Ry
     estimated scf accuracy    <       0.00000007 Ry

     total magnetization       =     2.00 Bohr mag/cell
     absolute magnetization    =     2.21 Bohr mag/cell

     iteration # 13     ecut=   100.00 Ry     beta= 0.50
     Davidson diagonalization with overlap

---- Real-time Memory Report at c_bands before calling an iterative solver
           359 MiB given to the printing process from OS
             0 MiB allocation reported by mallinfo(arena+hblkhd)
        123830 MiB available memory on the node where the printing process lives
------------------
     ethr =  2.78E-11,  avg # of iterations =  5.0

     total cpu time spent up to now is       69.1 secs

     total energy              =    -724.70771354 Ry
     estimated scf accuracy    <       0.00000001 Ry

     total magnetization       =     2.00 Bohr mag/cell
     absolute magnetization    =     2.21 Bohr mag/cell

     iteration # 14     ecut=   100.00 Ry     beta= 0.50
     Davidson diagonalization with overlap

---- Real-time Memory Report at c_bands before calling an iterative solver
           359 MiB given to the printing process from OS
             0 MiB allocation reported by mallinfo(arena+hblkhd)
        123824 MiB available memory on the node where the printing process lives
------------------
     ethr =  4.37E-12,  avg # of iterations =  5.0

     total cpu time spent up to now is       75.0 secs

     total energy              =    -724.70771356 Ry
     estimated scf accuracy    <          3.0E-09 Ry

     total magnetization       =     2.00 Bohr mag/cell
     absolute magnetization    =     2.21 Bohr mag/cell

     iteration # 15     ecut=   100.00 Ry     beta= 0.50
     Davidson diagonalization with overlap

---- Real-time Memory Report at c_bands before calling an iterative solver
           359 MiB given to the printing process from OS
             0 MiB allocation reported by mallinfo(arena+hblkhd)
        123826 MiB available memory on the node where the printing process lives
------------------
     ethr =  1.17E-12,  avg # of iterations =  4.6
 
     Magnetic moment per site  (integrated on atomic sphere of radius R)
     atom   1 (R=0.085)  charge=  1.8202  magn= -0.0000
     atom   2 (R=0.085)  charge=  1.8268  magn= -0.0007
     atom   3 (R=0.085)  charge=  1.8303  magn= -0.0014
     atom   4 (R=0.085)  charge=  1.8254  magn= -0.0017
     atom   5 (R=0.085)  charge=  1.8268  magn= -0.0007
     atom   6 (R=0.085)  charge=  1.7998  magn=  0.0005
     atom   7 (R=0.085)  charge=  1.8371  magn= -0.0032
     atom   8 (R=0.085)  charge=  1.8216  magn= -0.0014
     atom   9 (R=0.085)  charge=  1.8303  magn= -0.0014
     atom  10 (R=0.085)  charge=  1.8371  magn= -0.0032
     atom  11 (R=0.085)  charge=  1.8303  magn= -0.0014
     atom  12 (R=0.085)  charge=  1.8371  magn= -0.0032
     atom  13 (R=0.085)  charge=  1.8254  magn= -0.0017
     atom  14 (R=0.085)  charge=  1.8216  magn= -0.0014
     atom  15 (R=0.085)  charge=  1.8371  magn= -0.0032
     atom  16 (R=0.085)  charge=  1.8310  magn= -0.0008
     atom  17 (R=0.085)  charge=  1.8268  magn= -0.0007
     atom  18 (R=0.085)  charge=  1.7998  magn=  0.0005
     atom  19 (R=0.085)  charge=  1.8371  magn= -0.0032
     atom  20 (R=0.085)  charge=  1.8216  magn= -0.0014
     atom  21 (R=0.085)  charge=  1.7998  magn=  0.0005
     atom  22 (R=0.085)  charge=  1.8310  magn= -0.0008
     atom  23 (R=0.085)  charge=  1.8433  magn=  0.0085
     atom  24 (R=0.085)  charge=  1.8371  magn= -0.0032
     atom  25 (R=0.085)  charge=  1.8310  magn= -0.0008
     atom  26 (R=0.085)  charge=  1.8254  magn= -0.0017
     atom  27 (R=0.085)  charge=  1.8216  magn= -0.0014
     atom  28 (R=0.085)  charge=  1.8216  magn= -0.0014
     atom  29 (R=0.085)  charge=  1.8433  magn=  0.0085
     atom  30 (R=0.085)  charge=  1.8216  magn= -0.0014
     atom  31 (R=0.085)  charge=  1.8433  magn=  0.0085
     atom  32 (R=0.085)  charge=  1.8288  magn=  0.0036
     atom  33 (R=0.085)  charge=  1.8312  magn=  0.0083
     atom  34 (R=0.085)  charge=  1.8225  magn=  0.0049
     atom  35 (R=0.085)  charge=  1.8284  magn=  0.0180
     atom  36 (R=0.085)  charge=  1.8239  magn=  0.0070
     atom  37 (R=0.085)  charge=  1.8225  magn=  0.0049
     atom  38 (R=0.085)  charge=  1.8239  magn=  0.0070
     atom  39 (R=0.085)  charge=  1.8225  magn=  0.0049
     atom  40 (R=0.085)  charge=  1.8252  magn=  0.0063
     atom  41 (R=0.085)  charge=  1.8284  magn=  0.0180
     atom  42 (R=0.085)  charge=  1.8225  magn=  0.0049
     atom  43 (R=0.085)  charge=  1.8602  magn=  0.2034
     atom  44 (R=0.085)  charge=  1.8296  magn=  0.0046
     atom  45 (R=0.085)  charge=  1.8288  magn=  0.0036
     atom  46 (R=0.085)  charge=  1.8239  magn=  0.0070
     atom  47 (R=0.085)  charge=  1.8252  magn=  0.0063
     atom  48 (R=0.085)  charge=  1.8312  magn=  0.0083
     atom  49 (R=0.085)  charge=  1.8602  magn=  0.2034
     atom  50 (R=0.085)  charge=  1.8213  magn=  0.0164
     atom  51 (R=0.085)  charge=  1.8225  magn=  0.0049
     atom  52 (R=0.085)  charge=  1.8602  magn=  0.2034
     atom  53 (R=0.085)  charge=  1.8252  magn=  0.0063
     atom  54 (R=0.085)  charge=  1.8284  magn=  0.0180
     atom  55 (R=0.085)  charge=  1.8284  magn=  0.0180
     atom  56 (R=0.085)  charge=  1.8213  magn=  0.0164
     atom  57 (R=0.085)  charge=  1.8284  magn=  0.0180
     atom  58 (R=0.085)  charge=  1.8213  magn=  0.0164
     atom  59 (R=0.085)  charge=  1.8288  magn=  0.0036
     atom  60 (R=0.085)  charge=  1.8312  magn=  0.0083
     atom  61 (R=0.085)  charge=  1.8225  magn=  0.0049
     atom  62 (R=0.085)  charge=  1.8284  magn=  0.0180
     atom  63 (R=0.086)  charge=  2.9196  magn=  0.1178

     total cpu time spent up to now is       79.8 secs

     End of self-consistent calculation

 ------ SPIN UP ------------


          k = 0.0000 0.0000 0.0000 ( 41395 PWs)   bands (ev):

    -8.6149  -7.1276  -6.2994  -6.2994  -6.1739  -6.1739  -5.9081  -5.0103
    -4.1567  -4.1567  -4.1367  -4.1367  -4.0404  -4.0404  -4.0234  -3.9709
    -3.8722  -3.8722  -3.3842  -2.9814  -2.6869  -2.6869  -2.1418  -0.4068
    -0.4068  -0.3645  -0.3296  -0.1874   0.1392   0.1392   0.2527   0.2527
     0.3402   0.5714   0.7909   0.7909   0.9519   0.9555   0.9555   1.0137
     1.0137   1.0401   1.3121   1.3121   3.0147   3.8139   3.8139   4.0031
     4.1757   4.1757   4.1861   4.2081   4.2279   4.2279   4.3883   4.3883
     4.4402   4.4402   4.5470   4.6176   4.6238   4.6238   4.6357   4.7187
     4.7187   4.8581   4.9179   4.9179   4.9851   5.1612   5.1612   5.2373
     5.3137   5.3137   5.3544   5.3889   5.3889   5.9849   5.9849   6.0269
     6.5841   6.5841   6.6792   6.9019   6.9661   6.9661   7.4588   8.2514
     8.2514   8.3532   8.4227   8.4227   8.5995   8.5995   8.7477   8.7585
     8.7680   8.7680   8.8355   8.8355   8.8534   9.2244   9.2292   9.2292
     9.6207   9.6207   9.8525   9.8599   9.8612   9.8612   9.8674   9.9122
     9.9122   9.9503   9.9504   9.9504  10.0513  10.0513  10.2597  10.2756
    10.2756  10.5804  12.1733  12.3742  12.3742  13.6077  14.8922  14.8922
    17.2109  17.3082  17.3082  17.4463  17.5167  17.5167  17.7902  17.8771
    17.8771  17.9831  17.9831  18.3015  18.8620  18.8620  18.9236  20.5067
    20.7298  20.7302  20.8007  20.8519  20.8522  20.9500  20.9507  20.9534

     occupation numbers 
     1.0000   1.0000   1.0000   1.0000   1.0000   1.0000   1.0000   1.0000
     1.0000   1.0000   1.0000   1.0000   1.0000   1.0000   1.0000   1.0000
     1.0000   1.0000   1.0000   1.0000   1.0000   1.0000   1.0000   1.0000
     1.0000   1.0000   1.0000   1.0000   1.0000   1.0000   1.0000   1.0000
     1.0000   1.0000   1.0000   1.0000   1.0000   1.0000   1.0000   1.0000
     1.0000   1.0000   1.0000   1.0000   1.0000   1.0000   1.0000   1.0000
     1.0000   1.0000   1.0000   1.0000   1.0000   1.0000   1.0000   1.0000
     1.0000   1.0000   1.0000   1.0000   1.0000   1.0000   1.0000   1.0000
     1.0000   1.0000   1.0000   1.0000   1.0000   1.0000   1.0000   1.0000
     1.0000   1.0000   1.0000   1.0000   1.0000   1.0000   1.0000   1.0000
     1.0000   1.0000   1.0000   1.0000   1.0000   1.0000   1.0000   1.0000
     1.0000   1.0000   1.0000   1.0000   1.0000   1.0000   1.0000   1.0000
     1.0000   1.0000   1.0000   1.0000   1.0000   1.0000   1.0000   1.0000
     1.0000   1.0000   1.0000   1.0000   1.0000   1.0000   1.0000   1.0000
     1.0000   1.0000   1.0000   1.0000   1.0000   1.0000   1.0000   1.0000
     1.0000   1.0000   1.0000   1.0000   1.0000   1.0000   1.0000   1.0000
     0.0000   0.0000   0.0000   0.0000   0.0000   0.0000   0.0000   0.0000
     0.0000   0.0000   0.0000   0.0000   0.0000   0.0000   0.0000   0.0000
     0.0000   0.0000   0.0000   0.0000   0.0000   0.0000   0.0000   0.0000

          k = 0.0000 0.0000-0.5000 ( 41426 PWs)   bands (ev):

    -8.2391  -7.8683  -6.6663  -5.8074  -5.7022  -5.6980  -5.6803  -5.6558
    -5.5272  -5.2053  -4.2847  -3.6834  -3.6786  -3.6276  -3.6019  -3.5233
    -3.4611  -3.3815  -3.3595  -2.8100  -1.9940  -1.6498  -1.6351  -1.6061
    -1.5285  -1.4658  -1.3817  -0.7980   0.2392   0.3346   0.4213   0.4316
     0.5292   0.6211   0.7327   0.9973   1.2105   1.3143   1.3205   1.3643
     1.5280   1.6318   1.6515   1.9600   2.3700   2.3979   2.4395   2.5259
     2.5633   2.7705   2.7925   3.7826   3.8659   3.9729   4.0423   4.0642
     4.0977   4.1738   4.4065   4.4158   4.4997   5.3180   5.4436   5.5020
     5.5170   5.5921   5.6937   5.7660   5.7897   5.8345   6.2407   6.2626
     6.3919   6.4158   6.4393   6.5843   6.6966   6.9162   7.0185   7.0888
     7.1659   7.2020   7.2904   7.3173   7.3694   7.3857   7.3913   7.4104
     7.4198   7.4443   7.4818   7.5265   7.5479   7.5586   7.8554   7.9815
     8.0382   8.0450   8.1777   8.2603   8.3324   8.3784   8.7477   8.9610
     9.3562   9.6421   9.6824   9.8580   9.8859   9.9227   9.9325   9.9429
     9.9912  10.0101  10.0175  10.0201  10.0766  10.3210  10.6364  10.8988
    10.8998  11.0855  11.1300  11.1740  11.7799  13.2435  14.4660  14.7057
    17.1262  17.2368  18.0331  18.5209  19.0417  19.2871  19.4358  19.4607
    19.4766  19.5225  19.6042  19.6481  19.7135  19.7209  19.8193  19.8831
    19.9049  19.9650  19.9997  20.1354  20.1807  20.2530  20.6094  20.7139

     occupation numbers 
     1.0000   1.0000   1.0000   1.0000   1.0000   1.0000   1.0000   1.0000
     1.0000   1.0000   1.0000   1.0000   1.0000   1.0000   1.0000   1.0000
     1.0000   1.0000   1.0000   1.0000   1.0000   1.0000   1.0000   1.0000
     1.0000   1.0000   1.0000   1.0000   1.0000   1.0000   1.0000   1.0000
     1.0000   1.0000   1.0000   1.0000   1.0000   1.0000   1.0000   1.0000
     1.0000   1.0000   1.0000   1.0000   1.0000   1.0000   1.0000   1.0000
     1.0000   1.0000   1.0000   1.0000   1.0000   1.0000   1.0000   1.0000
     1.0000   1.0000   1.0000   1.0000   1.0000   1.0000   1.0000   1.0000
     1.0000   1.0000   1.0000   1.0000   1.0000   1.0000   1.0000   1.0000
     1.0000   1.0000   1.0000   1.0000   1.0000   1.0000   1.0000   1.0000
     1.0000   1.0000   1.0000   1.0000   1.0000   1.0000   1.0000   1.0000
     1.0000   1.0000   1.0000   1.0000   1.0000   1.0000   1.0000   1.0000
     1.0000   1.0000   1.0000   1.0000   1.0000   1.0000   1.0000   1.0000
     1.0000   1.0000   1.0000   1.0000   1.0000   1.0000   1.0000   1.0000
     1.0000   1.0000   1.0000   1.0000   1.0000   1.0000   1.0000   1.0000
     1.0000   1.0000   1.0000   1.0000   1.0000   1.0000   1.0000   1.0000
     0.0000   0.0000   0.0000   0.0000   0.0000   0.0000   0.0000   0.0000
     0.0000   0.0000   0.0000   0.0000   0.0000   0.0000   0.0000   0.0000
     0.0000   0.0000   0.0000   0.0000   0.0000   0.0000   0.0000   0.0000

          k = 0.0000-0.5000-0.5000 ( 41364 PWs)   bands (ev):

    -7.9616  -7.4258  -7.3680  -7.1213  -5.9734  -5.2552  -5.1978  -5.1549
    -5.1450  -5.1150  -4.9828  -4.5538  -3.5457  -3.0954  -3.0396  -2.9979
    -2.9593  -2.9468  -2.7607  -2.5178  -2.1506  -1.8456  -1.8281  -1.7441
    -1.7117  -1.6694  -1.5554  -0.9233  -0.2357  -0.0773  -0.0139   0.1697
     0.4388   0.4829   0.5625   0.5868   0.7096   0.7792   0.8866   0.9545
     1.1103   1.2496   1.4363   2.4526   3.3967   3.4335   3.4581   3.6245
     3.6361   3.6658   3.7535   3.7837   3.8241   3.8310   3.8545   3.8850
     3.8947   3.9263   3.9295   3.9567   4.1640   4.4544   4.5419   5.4876
     5.7161   5.7633   5.8752   5.9218   5.9647   6.0913   6.1940   6.3123
     6.3522   6.5008   6.5585   6.5705   6.6268   6.6908   6.7114   6.8427
     6.9343   6.9898   7.0258   7.0895   7.2487   7.2889   7.3164   7.4560
     7.5774   7.7229   7.7820   8.0003   8.1525   8.2221   8.2232   8.3674
     8.4116   8.4171   8.5553   8.5749   8.9133   8.9588   9.0159   9.2139
     9.2224   9.3030   9.3604   9.3833   9.3876   9.4803   9.4845   9.5586
     9.6377   9.6598   9.6819   9.6854   9.7029   9.7031   9.7426   9.7842
    10.9422  11.4296  11.6279  12.0582  12.1571  13.2386  14.4610  14.7787
    18.3297  18.6171  18.7054  18.8964  18.9800  19.1669  19.1741  19.2521
    19.2935  19.3947  19.3971  19.5327  19.5926  19.6487  19.7119  19.8051
    19.8612  19.8643  19.9293  19.9618  20.1483  20.1626  20.3757  20.4883

     occupation numbers 
     1.0000   1.0000   1.0000   1.0000   1.0000   1.0000   1.0000   1.0000
     1.0000   1.0000   1.0000   1.0000   1.0000   1.0000   1.0000   1.0000
     1.0000   1.0000   1.0000   1.0000   1.0000   1.0000   1.0000   1.0000
     1.0000   1.0000   1.0000   1.0000   1.0000   1.0000   1.0000   1.0000
     1.0000   1.0000   1.0000   1.0000   1.0000   1.0000   1.0000   1.0000
     1.0000   1.0000   1.0000   1.0000   1.0000   1.0000   1.0000   1.0000
     1.0000   1.0000   1.0000   1.0000   1.0000   1.0000   1.0000   1.0000
     1.0000   1.0000   1.0000   1.0000   1.0000   1.0000   1.0000   1.0000
     1.0000   1.0000   1.0000   1.0000   1.0000   1.0000   1.0000   1.0000
     1.0000   1.0000   1.0000   1.0000   1.0000   1.0000   1.0000   1.0000
     1.0000   1.0000   1.0000   1.0000   1.0000   1.0000   1.0000   1.0000
     1.0000   1.0000   1.0000   1.0000   1.0000   1.0000   1.0000   1.0000
     1.0000   1.0000   1.0000   1.0000   1.0000   1.0000   1.0000   1.0000
     1.0000   1.0000   1.0000   1.0000   1.0000   1.0000   1.0000   1.0000
     1.0000   1.0000   1.0000   1.0000   1.0000   1.0000   1.0000   1.0000
     1.0000   1.0000   1.0000   1.0000   1.0000   1.0000   1.0000   1.0000
     0.0000   0.0000   0.0000   0.0000   0.0000   0.0000   0.0000   0.0000
     0.0000   0.0000   0.0000   0.0000   0.0000   0.0000   0.0000   0.0000
     0.0000   0.0000   0.0000   0.0000   0.0000   0.0000   0.0000   0.0000

          k =-0.5000-0.5000-0.5000 ( 41328 PWs)   bands (ev):

    -7.7786  -6.9020  -6.8686  -6.8686  -6.7890  -6.7320  -6.7320  -6.1889
    -4.1623  -2.7972  -2.7972  -2.6232  -2.6232  -2.6199  -2.6103  -2.6103
    -2.6056  -2.5573  -2.5573  -2.5377  -2.5124  -2.4963  -2.4963  -2.4272
    -2.4153  -2.4153  -2.3715  -2.3715  -2.3244  -2.0147  -2.0147  -0.1309
     1.6189   1.7633   1.7633   2.0168   2.0563   2.0563   2.0779   2.0825
     2.1046   2.1046   2.1380   2.1457   2.1457   2.1530   2.1530   2.1974
     2.1974   2.2106   2.2659   2.2659   2.6419   2.9403   2.9403   4.6293
     5.5652   5.5652   5.7843   6.0579   6.0717   6.0717   6.0784   6.1213
     6.1213   6.1271   6.1496   6.1496   6.1689   6.1689   6.1841   6.2018
     6.2018   6.2153   6.2191   6.2442   6.2442   6.2604   6.3019   6.3510
     6.3510   6.4510   6.5125   6.5125   6.9543   6.9661   6.9661   7.5990
     7.5990   7.8934   7.9055   7.9056   7.9518   7.9518   7.9756   7.9907
     8.0017   8.0017   8.0035   8.0320   8.0581   8.0581   8.1004   8.1004
     8.1567   8.2707   8.2707   8.3437   9.3879   9.7760   9.7760  10.6256
    10.8637  10.8637  11.0890  11.0890  11.1382  11.1382  11.1465  11.1537
    11.1537  11.1775  11.1936  11.2326  11.2326  13.3172  14.7983  14.7983
    18.1356  18.7964  18.7964  18.9254  18.9254  18.9371  18.9371  18.9402
    18.9666  18.9666  18.9704  18.9824  19.0365  19.0435  19.0435  19.1541
    19.1820  19.1820  19.4602  19.5402  19.5402  19.6600  19.6600  19.9150

     occupation numbers 
     1.0000   1.0000   1.0000   1.0000   1.0000   1.0000   1.0000   1.0000
     1.0000   1.0000   1.0000   1.0000   1.0000   1.0000   1.0000   1.0000
     1.0000   1.0000   1.0000   1.0000   1.0000   1.0000   1.0000   1.0000
     1.0000   1.0000   1.0000   1.0000   1.0000   1.0000   1.0000   1.0000
     1.0000   1.0000   1.0000   1.0000   1.0000   1.0000   1.0000   1.0000
     1.0000   1.0000   1.0000   1.0000   1.0000   1.0000   1.0000   1.0000
     1.0000   1.0000   1.0000   1.0000   1.0000   1.0000   1.0000   1.0000
     1.0000   1.0000   1.0000   1.0000   1.0000   1.0000   1.0000   1.0000
     1.0000   1.0000   1.0000   1.0000   1.0000   1.0000   1.0000   1.0000
     1.0000   1.0000   1.0000   1.0000   1.0000   1.0000   1.0000   1.0000
     1.0000   1.0000   1.0000   1.0000   1.0000   1.0000   1.0000   1.0000
     1.0000   1.0000   1.0000   1.0000   1.0000   1.0000   1.0000   1.0000
     1.0000   1.0000   1.0000   1.0000   1.0000   1.0000   1.0000   1.0000
     1.0000   1.0000   1.0000   1.0000   1.0000   1.0000   1.0000   1.0000
     1.0000   1.0000   1.0000   1.0000   1.0000   1.0000   1.0000   1.0000
     1.0000   1.0000   1.0000   1.0000   1.0000   1.0000   1.0000   1.0000
     0.0000   0.0000   0.0000   0.0000   0.0000   0.0000   0.0000   0.0000
     0.0000   0.0000   0.0000   0.0000   0.0000   0.0000   0.0000   0.0000
     0.0000   0.0000   0.0000   0.0000   0.0000   0.0000   0.0000   0.0000

 ------ SPIN DOWN ----------


          k = 0.0000 0.0000 0.0000 ( 41395 PWs)   bands (ev):

    -8.5786  -7.0566  -6.2804  -6.2803  -6.1378  -6.1378  -5.8710  -4.9659
    -4.1372  -4.1372  -4.1183  -4.1183  -4.0024  -3.9895  -3.9895  -3.9552
    -3.8344  -3.8344  -3.3418  -2.9539  -2.6394  -2.6394  -2.0165  -0.3888
    -0.3888  -0.3440  -0.3028  -0.1109   0.1576   0.1576   0.2857   0.2857
     0.3613   0.6095   0.8054   0.8054   0.9805   0.9805   0.9822   1.0300
     1.0300   1.0519   1.4553   1.4553   3.1265   3.8482   3.8482   4.0365
     4.2060   4.2117   4.2117   4.2432   4.2432   4.2470   4.4209   4.4209
     4.4705   4.4705   4.5655   4.6420   4.6421   4.6464   4.6475   4.7550
     4.7550   4.8772   4.9455   4.9455   5.0729   5.1953   5.1953   5.2690
     5.3251   5.3251   5.3639   5.4392   5.4392   6.0383   6.0383   6.0750
     6.6125   6.6126   6.7058   6.9757   7.0459   7.0459   7.6284   8.2904
     8.2904   8.3940   8.4541   8.4541   8.6332   8.6332   8.7699   8.7866
     8.7866   8.8245   8.8710   8.8756   8.8756   9.2594   9.2606   9.2606
     9.6511   9.6511   9.8639   9.8736   9.8800   9.8800   9.8959   9.9317
     9.9317   9.9672   9.9758   9.9758  10.0834  10.0834  10.3068  10.3260
    10.3260  11.0542  12.4892  12.4892  12.4986  14.3101  15.9916  15.9916
    17.2531  17.3268  17.3268  17.4699  17.5655  17.5655  17.8253  17.8985
    17.8985  18.0192  18.0192  18.4197  18.9384  18.9385  18.9724  20.5746
    20.7453  20.7453  20.8126  20.8759  20.8761  20.9702  20.9716  20.9719

     occupation numbers 
     1.0000   1.0000   1.0000   1.0000   1.0000   1.0000   1.0000   1.0000
     1.0000   1.0000   1.0000   1.0000   1.0000   1.0000   1.0000   1.0000
     1.0000   1.0000   1.0000   1.0000   1.0000   1.0000   1.0000   1.0000
     1.0000   1.0000   1.0000   1.0000   1.0000   1.0000   1.0000   1.0000
     1.0000   1.0000   1.0000   1.0000   1.0000   1.0000   1.0000   1.0000
     1.0000   1.0000   1.0000   1.0000   1.0000   1.0000   1.0000   1.0000
     1.0000   1.0000   1.0000   1.0000   1.0000   1.0000   1.0000   1.0000
     1.0000   1.0000   1.0000   1.0000   1.0000   1.0000   1.0000   1.0000
     1.0000   1.0000   1.0000   1.0000   1.0000   1.0000   1.0000   1.0000
     1.0000   1.0000   1.0000   1.0000   1.0000   1.0000   1.0000   1.0000
     1.0000   1.0000   1.0000   1.0000   1.0000   1.0000   1.0000   1.0000
     1.0000   1.0000   1.0000   1.0000   1.0000   1.0000   1.0000   1.0000
     1.0000   1.0000   1.0000   1.0000   1.0000   1.0000   1.0000   1.0000
     1.0000   1.0000   1.0000   1.0000   1.0000   1.0000   1.0000   1.0000
     1.0000   1.0000   1.0000   1.0000   1.0000   1.0000   1.0000   1.0000
     1.0000   1.0000   1.0000   1.0000   1.0000   0.0000   1.0000   0.0000
     0.0000   0.0000   0.0000   0.0000   0.0000   0.0000   0.0000   0.0000
     0.0000   0.0000   0.0000   0.0000   0.0000   0.0000   0.0000   0.0000
     0.0000   0.0000   0.0000   0.0000   0.0000   0.0000   0.0000   0.0000

          k = 0.0000 0.0000-0.5000 ( 41426 PWs)   bands (ev):

    -8.1969  -7.8351  -6.5943  -5.7893  -5.6788  -5.6780  -5.6632  -5.6416
    -5.4708  -5.1485  -4.2308  -3.6633  -3.6614  -3.6088  -3.5634  -3.5030
    -3.4273  -3.3469  -3.3064  -2.7435  -1.9558  -1.6279  -1.6151  -1.5851
    -1.4950  -1.4223  -1.3081  -0.7081   0.2992   0.3506   0.4399   0.4406
     0.5524   0.6408   0.8070   1.0365   1.2474   1.3362   1.3475   1.3984
     1.5595   1.6688   1.6988   2.0033   2.4054   2.4213   2.4757   2.5457
     2.5822   2.8594   2.8857   3.8317   3.8884   3.9924   4.0576   4.0831
     4.1451   4.2086   4.4507   4.4694   4.5560   5.3893   5.4723   5.5327
     5.5390   5.6121   5.7502   5.7935   5.8390   5.8754   6.2745   6.3010
     6.4069   6.4657   6.4674   6.6380   6.7568   6.9417   7.0456   7.1352
     7.2103   7.2223   7.3179   7.3383   7.3936   7.3990   7.4118   7.4376
     7.4457   7.4586   7.4967   7.5668   7.5946   7.6035   7.8901   8.0285
     8.0858   8.1099   8.2138   8.2926   8.3722   8.4179   8.8238   9.0460
     9.4169   9.6716   9.7766   9.8970   9.9180   9.9464   9.9487   9.9598
    10.0077  10.0414  10.0549  10.0553  10.1072  10.3772  10.7791  10.9420
    10.9874  11.1272  11.2206  11.2722  11.9768  14.1854  15.5831  15.8588
    17.1631  17.2707  18.0616  18.5593  19.0843  19.3081  19.4523  19.4794
    19.4923  19.5677  19.6281  19.6698  19.7304  19.7517  19.8597  19.9072
    19.9558  20.0043  20.0769  20.1535  20.2188  20.3204  20.6558  20.7428

     occupation numbers 
     1.0000   1.0000   1.0000   1.0000   1.0000   1.0000   1.0000   1.0000
     1.0000   1.0000   1.0000   1.0000   1.0000   1.0000   1.0000   1.0000
     1.0000   1.0000   1.0000   1.0000   1.0000   1.0000   1.0000   1.0000
     1.0000   1.0000   1.0000   1.0000   1.0000   1.0000   1.0000   1.0000
     1.0000   1.0000   1.0000   1.0000   1.0000   1.0000   1.0000   1.0000
     1.0000   1.0000   1.0000   1.0000   1.0000   1.0000   1.0000   1.0000
     1.0000   1.0000   1.0000   1.0000   1.0000   1.0000   1.0000   1.0000
     1.0000   1.0000   1.0000   1.0000   1.0000   1.0000   1.0000   1.0000
     1.0000   1.0000   1.0000   1.0000   1.0000   1.0000   1.0000   1.0000
     1.0000   1.0000   1.0000   1.0000   1.0000   1.0000   1.0000   1.0000
     1.0000   1.0000   1.0000   1.0000   1.0000   1.0000   1.0000   1.0000
     1.0000   1.0000   1.0000   1.0000   1.0000   1.0000   1.0000   1.0000
     1.0000   1.0000   1.0000   1.0000   1.0000   1.0000   1.0000   1.0000
     1.0000   1.0000   1.0000   1.0000   1.0000   1.0000   1.0000   1.0000
     1.0000   1.0000   1.0000   1.0000   1.0000   1.0000   1.0000   1.0000
     1.0000   1.0000   1.0000   1.0000   1.0000   0.0000   1.0000   0.0000
     0.0000   0.0000   0.0000   0.0000   0.0000   0.0000   0.0000   0.0000
     0.0000   0.0000   0.0000   0.0000   0.0000   0.0000   0.0000   0.0000
     0.0000   0.0000   0.0000   0.0000   0.0000   0.0000   0.0000   0.0000

          k = 0.0000-0.5000-0.5000 ( 41364 PWs)   bands (ev):

    -7.9057  -7.4070  -7.3400  -7.0758  -5.9152  -5.2407  -5.1813  -5.1237
    -5.1159  -5.0959  -4.9258  -4.4922  -3.4898  -3.0769  -3.0202  -2.9864
    -2.9144  -2.9104  -2.7146  -2.4932  -2.1258  -1.8252  -1.8074  -1.7316
    -1.6779  -1.6314  -1.4590  -0.8285  -0.1899  -0.0460   0.0139   0.2250
     0.4575   0.5119   0.5889   0.6122   0.7341   0.8116   0.9191   0.9869
     1.1341   1.2939   1.5229   2.5632   3.4358   3.4648   3.4862   3.6501
     3.6691   3.6817   3.7766   3.8379   3.8487   3.8490   3.8781   3.9041
     3.9196   3.9441   3.9731   3.9787   4.2116   4.5492   4.6450   5.5469
     5.7633   5.7964   5.8863   5.9455   5.9918   6.1172   6.2479   6.3859
     6.3867   6.5250   6.5849   6.5935   6.6701   6.7056   6.7274   6.8666
     6.9657   7.0141   7.0541   7.1125   7.2887   7.3252   7.3612   7.4730
     7.6055   7.7801   7.8342   8.0386   8.1694   8.2415   8.2479   8.4347
     8.4588   8.4984   8.6133   8.6321   8.9485   9.0104   9.0537   9.2430
     9.2924   9.3192   9.3902   9.4020   9.4207   9.5094   9.5197   9.5815
     9.6740   9.6892   9.7081   9.7176   9.7486   9.7607   9.7827   9.8337
    11.1685  11.5396  11.9359  12.0806  12.1828  14.1961  15.5782  15.8865
    18.3649  18.6418  18.7303  18.9202  19.0174  19.2010  19.2039  19.2765
    19.3197  19.4139  19.4368  19.5758  19.6166  19.6758  19.7352  19.8275
    19.8797  19.8853  19.9542  19.9849  20.1862  20.2149  20.4195  20.5184

     occupation numbers 
     1.0000   1.0000   1.0000   1.0000   1.0000   1.0000   1.0000   1.0000
     1.0000   1.0000   1.0000   1.0000   1.0000   1.0000   1.0000   1.0000
     1.0000   1.0000   1.0000   1.0000   1.0000   1.0000   1.0000   1.0000
     1.0000   1.0000   1.0000   1.0000   1.0000   1.0000   1.0000   1.0000
     1.0000   1.0000   1.0000   1.0000   1.0000   1.0000   1.0000   1.0000
     1.0000   1.0000   1.0000   1.0000   1.0000   1.0000   1.0000   1.0000
     1.0000   1.0000   1.0000   1.0000   1.0000   1.0000   1.0000   1.0000
     1.0000   1.0000   1.0000   1.0000   1.0000   1.0000   1.0000   1.0000
     1.0000   1.0000   1.0000   1.0000   1.0000   1.0000   1.0000   1.0000
     1.0000   1.0000   1.0000   1.0000   1.0000   1.0000   1.0000   1.0000
     1.0000   1.0000   1.0000   1.0000   1.0000   1.0000   1.0000   1.0000
     1.0000   1.0000   1.0000   1.0000   1.0000   1.0000   1.0000   1.0000
     1.0000   1.0000   1.0000   1.0000   1.0000   1.0000   1.0000   1.0000
     1.0000   1.0000   1.0000   1.0000   1.0000   1.0000   1.0000   1.0000
     1.0000   1.0000   1.0000   1.0000   1.0000   1.0000   1.0000   1.0000
     1.0000   1.0000   1.0000   1.0000   1.0000   0.0000   1.0000   0.0000
     0.0000   0.0000   0.0000   0.0000   0.0000   0.0000   0.0000   0.0000
     0.0000   0.0000   0.0000   0.0000   0.0000   0.0000   0.0000   0.0000
     0.0000   0.0000   0.0000   0.0000   0.0000   0.0000   0.0000   0.0000

          k =-0.5000-0.5000-0.5000 ( 41328 PWs)   bands (ev):

    -7.7099  -6.8935  -6.8487  -6.8487  -6.7687  -6.6942  -6.6942  -6.1089
    -4.0668  -2.7771  -2.7771  -2.6010  -2.6010  -2.6006  -2.5915  -2.5870
    -2.5870  -2.5367  -2.5367  -2.5175  -2.5013  -2.4834  -2.4834  -2.3950
    -2.3930  -2.3930  -2.3432  -2.3432  -2.3072  -1.8775  -1.8775   0.0268
     1.6595   1.7880   1.7880   2.0812   2.0812   2.0815   2.0900   2.1082
     2.1238   2.1238   2.1546   2.1546   2.1678   2.1788   2.1788   2.2224
     2.2224   2.2355   2.3052   2.3052   2.6990   3.0546   3.0546   4.7892
     5.6095   5.6095   5.8113   6.0762   6.0844   6.0844   6.1032   6.1342
     6.1342   6.1454   6.1697   6.1697   6.1939   6.1939   6.2153   6.2243
     6.2434   6.2434   6.2528   6.2781   6.2781   6.2915   6.3577   6.3611
     6.3611   6.4805   6.5734   6.5734   7.0096   7.0320   7.0320   7.6263
     7.6263   7.9109   7.9326   7.9326   7.9678   7.9678   7.9933   8.0131
     8.0274   8.0278   8.0278   8.0446   8.0736   8.0736   8.1328   8.1328
     8.1660   8.3255   8.3255   8.4098   9.5538   9.9249   9.9249  10.8937
    10.8937  11.0894  11.1185  11.1185  11.1571  11.1571  11.1647  11.1869
    11.1869  11.2224  11.2584  11.2584  11.3465  14.2112  15.9547  15.9547
    18.1811  18.8099  18.8099  18.9410  18.9410  18.9485  18.9485  18.9488
    18.9851  18.9851  18.9911  19.0055  19.0451  19.0675  19.0675  19.1757
    19.2427  19.2427  19.4937  19.5773  19.5773  19.6989  19.6989  19.9915

     occupation numbers 
     1.0000   1.0000   1.0000   1.0000   1.0000   1.0000   1.0000   1.0000
     1.0000   1.0000   1.0000   1.0000   1.0000   1.0000   1.0000   1.0000
     1.0000   1.0000   1.0000   1.0000   1.0000   1.0000   1.0000   1.0000
     1.0000   1.0000   1.0000   1.0000   1.0000   1.0000   1.0000   1.0000
     1.0000   1.0000   1.0000   1.0000   1.0000   1.0000   1.0000   1.0000
     1.0000   1.0000   1.0000   1.0000   1.0000   1.0000   1.0000   1.0000
     1.0000   1.0000   1.0000   1.0000   1.0000   1.0000   1.0000   1.0000
     1.0000   1.0000   1.0000   1.0000   1.0000   1.0000   1.0000   1.0000
     1.0000   1.0000   1.0000   1.0000   1.0000   1.0000   1.0000   1.0000
     1.0000   1.0000   1.0000   1.0000   1.0000   1.0000   1.0000   1.0000
     1.0000   1.0000   1.0000   1.0000   1.0000   1.0000   1.0000   1.0000
     1.0000   1.0000   1.0000   1.0000   1.0000   1.0000   1.0000   1.0000
     1.0000   1.0000   1.0000   1.0000   1.0000   1.0000   1.0000   1.0000
     1.0000   1.0000   1.0000   1.0000   1.0000   1.0000   1.0000   1.0000
     1.0000   1.0000   1.0000   1.0000   1.0000   1.0000   1.0000   1.0000
     1.0000   1.0000   1.0000   1.0000   1.0000   0.0000   1.0000   0.0000
     0.0000   0.0000   0.0000   0.0000   0.0000   0.0000   0.0000   0.0000
     0.0000   0.0000   0.0000   0.0000   0.0000   0.0000   0.0000   0.0000
     0.0000   0.0000   0.0000   0.0000   0.0000   0.0000   0.0000   0.0000

     highest occupied, lowest unoccupied level (ev):    14.8922   14.1854

!    total energy              =    -724.70771356 Ry
     estimated scf accuracy    <          8.0E-10 Ry

     The total energy is the sum of the following terms:
     one-electron contribution =     232.01400742 Ry
     hartree contribution      =      69.63059917 Ry
     xc contribution           =    -226.44689197 Ry
     ewald contribution        =    -799.90542819 Ry

     total magnetization       =     2.00 Bohr mag/cell
     absolute magnetization    =     2.21 Bohr mag/cell

     convergence has been achieved in  15 iterations

     Forces acting on atoms (cartesian axes, Ry/au):

     atom    1 type  1   force =     0.00044364   -0.00044364   -0.00044364
     atom    2 type  1   force =     0.00011152   -0.00011152    0.00061055
     atom    3 type  1   force =    -0.00003873    0.00003873    0.00017344
     atom    4 type  1   force =    -0.00002308    0.00002308    0.00075671
     atom    5 type  1   force =    -0.00061055   -0.00011152   -0.00011152
     atom    6 type  1   force =    -0.00000535    0.00040410    0.00000535
     atom    7 type  1   force =     0.00031836   -0.00014383    0.00003133
     atom    8 type  1   force =    -0.00074531   -0.00074762   -0.00000468
     atom    9 type  1   force =    -0.00017344    0.00003873    0.00003873
     atom   10 type  1   force =    -0.00003133   -0.00014383   -0.00031836
     atom   11 type  1   force =    -0.00003873    0.00017344    0.00003873
     atom   12 type  1   force =     0.00014383    0.00003133   -0.00031836
     atom   13 type  1   force =    -0.00075671    0.00002308    0.00002308
     atom   14 type  1   force =     0.00000468   -0.00074762    0.00074531
     atom   15 type  1   force =     0.00031836    0.00003133   -0.00014383
     atom   16 type  1   force =     0.00023662    0.00024296   -0.00023662
     atom   17 type  1   force =     0.00011152    0.00061055   -0.00011152
     atom   18 type  1   force =    -0.00040410    0.00000535    0.00000535
     atom   19 type  1   force =     0.00014383   -0.00031836    0.00003133
     atom   20 type  1   force =     0.00074762    0.00074531   -0.00000468
     atom   21 type  1   force =    -0.00000535    0.00000535    0.00040410
     atom   22 type  1   force =     0.00023662   -0.00023662    0.00024296
     atom   23 type  1   force =     0.00036113   -0.00036113    0.00000154
     atom   24 type  1   force =    -0.00003133   -0.00031836   -0.00014383
     atom   25 type  1   force =    -0.00024296   -0.00023662   -0.00023662
     atom   26 type  1   force =    -0.00002308    0.00075671    0.00002308
     atom   27 type  1   force =     0.00074762   -0.00000468    0.00074531
     atom   28 type  1   force =     0.00000468    0.00074531   -0.00074762
     atom   29 type  1   force =    -0.00000154   -0.00036113   -0.00036113
     atom   30 type  1   force =    -0.00074531   -0.00000468   -0.00074762
     atom   31 type  1   force =     0.00036113    0.00000154   -0.00036113
     atom   32 type  1   force =    -0.00068972   -0.00034281   -0.00034281
     atom   33 type  1   force =    -0.00037881    0.00036728    0.00037881
     atom   34 type  1   force =     0.00049677    0.00036969   -0.00001789
     atom   35 type  1   force =    -0.00017079   -0.00044849    0.00070083
     atom   36 type  1   force =    -0.00030161   -0.00013473   -0.00013473
     atom   37 type  1   force =     0.00001789    0.00036969   -0.00049677
     atom   38 type  1   force =     0.00013473    0.00030161   -0.00013473
     atom   39 type  1   force =    -0.00036969   -0.00001789   -0.00049677
     atom   40 type  1   force =    -0.00059819    0.00010015    0.00010015
     atom   41 type  1   force =    -0.00070083   -0.00044849    0.00017079
     atom   42 type  1   force =     0.00049677   -0.00001789    0.00036969
     atom   43 type  1   force =     0.00013051   -0.00023781   -0.00013051
     atom   44 type  1   force =     0.00009413   -0.00009413   -0.00009413
     atom   45 type  1   force =     0.00034281   -0.00034281    0.00068972
     atom   46 type  1   force =     0.00013473   -0.00013473    0.00030161
     atom   47 type  1   force =    -0.00010015    0.00010015    0.00059819
     atom   48 type  1   force =    -0.00037881    0.00037881    0.00036728
     atom   49 type  1   force =     0.00013051   -0.00013051   -0.00023781
     atom   50 type  1   force =     0.00074670   -0.00074670   -0.00020320
     atom   51 type  1   force =     0.00001789   -0.00049677    0.00036969
     atom   52 type  1   force =     0.00023781   -0.00013051   -0.00013051
     atom   53 type  1   force =    -0.00010015    0.00059819    0.00010015
     atom   54 type  1   force =     0.00044849    0.00070083    0.00017079
     atom   55 type  1   force =    -0.00070083    0.00017079   -0.00044849
     atom   56 type  1   force =     0.00020320   -0.00074670   -0.00074670
     atom   57 type  1   force =    -0.00017079    0.00070083   -0.00044849
     atom   58 type  1   force =     0.00074670   -0.00020320   -0.00074670
     atom   59 type  1   force =     0.00034281    0.00068972   -0.00034281
     atom   60 type  1   force =    -0.00036728    0.00037881    0.00037881
     atom   61 type  1   force =    -0.00036969   -0.00049677   -0.00001789
     atom   62 type  1   force =     0.00044849    0.00017079    0.00070083
     atom   63 type  2   force =    -0.00018788    0.00018788    0.00018788
     The non-local contrib.  to forces
     atom    1 type  1   force =    -0.00504868    0.00504868    0.00504868
     atom    2 type  1   force =     0.01419412   -0.01419412    0.02050159
     atom    3 type  1   force =     0.00452136   -0.00452136    0.02361008
     atom    4 type  1   force =    -0.01386875    0.01386875   -0.00294961
     atom    5 type  1   force =    -0.02050159   -0.01419412   -0.01419412
     atom    6 type  1   force =    -0.14635055   -0.15655260    0.14635055
     atom    7 type  1   force =     0.08867534    0.06730879   -0.08509547
     atom    8 type  1   force =    -0.00475571    0.02467878    0.00571903
     atom    9 type  1   force =    -0.02361008   -0.00452136   -0.00452136
     atom   10 type  1   force =     0.08509547    0.06730879   -0.08867534
     atom   11 type  1   force =     0.00452136    0.02361008   -0.00452136
     atom   12 type  1   force =    -0.06730879   -0.08509547   -0.08867534
     atom   13 type  1   force =     0.00294961    0.01386875    0.01386875
     atom   14 type  1   force =    -0.00571903    0.02467878    0.00475571
     atom   15 type  1   force =     0.08867534   -0.08509547    0.06730879
     atom   16 type  1   force =    -0.07617873    0.05592793    0.07617873
     atom   17 type  1   force =     0.01419412    0.02050159   -0.01419412
     atom   18 type  1   force =     0.15655260    0.14635055    0.14635055
     atom   19 type  1   force =    -0.06730879   -0.08867534   -0.08509547
     atom   20 type  1   force =    -0.02467878    0.00475571    0.00571903
     atom   21 type  1   force =    -0.14635055    0.14635055   -0.15655260
     atom   22 type  1   force =    -0.07617873    0.07617873    0.05592793
     atom   23 type  1   force =    -0.01654047    0.01654047   -0.03511496
     atom   24 type  1   force =     0.08509547   -0.08867534    0.06730879
     atom   25 type  1   force =    -0.05592793    0.07617873    0.07617873
     atom   26 type  1   force =    -0.01386875   -0.00294961    0.01386875
     atom   27 type  1   force =    -0.02467878    0.00571903    0.00475571
     atom   28 type  1   force =    -0.00571903    0.00475571    0.02467878
     atom   29 type  1   force =     0.03511496    0.01654047    0.01654047
     atom   30 type  1   force =    -0.00475571    0.00571903    0.02467878
     atom   31 type  1   force =    -0.01654047   -0.03511496    0.01654047
     atom   32 type  1   force =    -0.01620012   -0.00527678   -0.00527678
     atom   33 type  1   force =    -0.00509088   -0.01992437    0.00509088
     atom   34 type  1   force =     0.05185810   -0.03109782   -0.02286160
     atom   35 type  1   force =    -0.07335222    0.03210116   -0.01996466
     atom   36 type  1   force =    -0.05580753   -0.00803578   -0.00803578
     atom   37 type  1   force =     0.02286160   -0.03109782   -0.05185810
     atom   38 type  1   force =     0.00803578    0.05580753   -0.00803578
     atom   39 type  1   force =     0.03109782   -0.02286160   -0.05185810
     atom   40 type  1   force =    -0.05581995    0.00002344    0.00002344
     atom   41 type  1   force =     0.01996466    0.03210116    0.07335222
     atom   42 type  1   force =     0.05185810   -0.02286160   -0.03109782
     atom   43 type  1   force =    -0.26975571   -0.25449463    0.26975571
     atom   44 type  1   force =    -0.01416443    0.01416443    0.01416443
     atom   45 type  1   force =     0.00527678   -0.00527678    0.01620012
     atom   46 type  1   force =     0.00803578   -0.00803578    0.05580753
     atom   47 type  1   force =    -0.00002344    0.00002344    0.05581995
     atom   48 type  1   force =    -0.00509088    0.00509088   -0.01992437
     atom   49 type  1   force =    -0.26975571    0.26975571   -0.25449463
     atom   50 type  1   force =    -0.02875560    0.02875560   -0.07356222
     atom   51 type  1   force =     0.02286160   -0.05185810   -0.03109782
     atom   52 type  1   force =     0.25449463    0.26975571    0.26975571
     atom   53 type  1   force =    -0.00002344    0.05581995    0.00002344
     atom   54 type  1   force =    -0.03210116   -0.01996466    0.07335222
     atom   55 type  1   force =     0.01996466    0.07335222    0.03210116
     atom   56 type  1   force =     0.07356222    0.02875560    0.02875560
     atom   57 type  1   force =    -0.07335222   -0.01996466    0.03210116
     atom   58 type  1   force =    -0.02875560   -0.07356222    0.02875560
     atom   59 type  1   force =     0.00527678    0.01620012   -0.00527678
     atom   60 type  1   force =     0.01992437    0.00509088    0.00509088
     atom   61 type  1   force =     0.03109782   -0.05185810   -0.02286160
     atom   62 type  1   force =    -0.03210116    0.07335222   -0.01996466
     atom   63 type  2   force =     0.66551799   -0.66551799   -0.66551799
     The ionic contribution  to forces
     atom    1 type  1   force =     0.01809344   -0.01809369   -0.01809022
     atom    2 type  1   force =    -0.11573802    0.11573591   -0.25512792
     atom    3 type  1   force =    -0.07129169    0.07129307   -0.20208857
     atom    4 type  1   force =     0.16684306   -0.16684106   -0.06862341
     atom    5 type  1   force =     0.25512862    0.11573633    0.11573748
     atom    6 type  1   force =    -0.25138080    1.02715206    0.25137917
     atom    7 type  1   force =     0.41226026   -0.63174742    0.77030541
     atom    8 type  1   force =     0.13973884    0.00259250    0.20756905
     atom    9 type  1   force =     0.20209022    0.07129223    0.07128711
     atom   10 type  1   force =    -0.77030852   -0.63174575   -0.41226047
     atom   11 type  1   force =    -0.07129373   -0.20208975    0.07129336
     atom   12 type  1   force =     0.63174940    0.77030275   -0.41226320
     atom   13 type  1   force =     0.06862549   -0.16684124   -0.16683920
     atom   14 type  1   force =    -0.20756977    0.00259270   -0.13973712
     atom   15 type  1   force =     0.41226145    0.77030648   -0.63174974
     atom   16 type  1   force =     0.81015402    0.43180662   -0.81015003
     atom   17 type  1   force =    -0.11573872   -0.25512929    0.11573549
     atom   18 type  1   force =    -1.02715240    0.25137887    0.25138147
     atom   19 type  1   force =     0.63175006   -0.41225942    0.77030467
     atom   20 type  1   force =    -0.00259353   -0.13973771    0.20756880
     atom   21 type  1   force =    -0.25138363    0.25138201    1.02714803
     atom   22 type  1   force =     0.81015092   -0.81014988    0.43180232
     atom   23 type  1   force =     0.04383812   -0.04383410   -0.03205866
     atom   24 type  1   force =    -0.77030724   -0.41226094   -0.63174600
     atom   25 type  1   force =    -0.43180446   -0.81014979   -0.81014759
     atom   26 type  1   force =     0.16684510   -0.06862722   -0.16684551
     atom   27 type  1   force =    -0.00259430    0.20756818   -0.13973459
     atom   28 type  1   force =    -0.20757004   -0.13973644    0.00259245
     atom   29 type  1   force =     0.03205866   -0.04383369   -0.04383152
     atom   30 type  1   force =     0.13974013    0.20756656    0.00259567
     atom   31 type  1   force =     0.04383582   -0.03206003   -0.04383149
     atom   32 type  1   force =     0.07784856    0.04624433    0.04624545
     atom   33 type  1   force =     0.07716064    0.11464909   -0.07716089
     atom   34 type  1   force =    -0.18081066    0.00784452    0.47804608
     atom   35 type  1   force =     0.04643404   -0.17932222    0.13253143
     atom   36 type  1   force =     0.72356823    0.23533371    0.23533433
     atom   37 type  1   force =    -0.47804620    0.00784428    0.18080882
     atom   38 type  1   force =    -0.23533462   -0.72356675    0.23533357
     atom   39 type  1   force =    -0.00784592    0.47804616    0.18081104
     atom   40 type  1   force =     0.71316586   -0.20336098   -0.20336118
     atom   41 type  1   force =    -0.13253241   -0.17932154   -0.04643352
     atom   42 type  1   force =    -0.18081364    0.47804491    0.00784448
     atom   43 type  1   force =     2.07262691    2.40328541   -2.07262478
     atom   44 type  1   force =     0.08118952   -0.08119151   -0.08119019
     atom   45 type  1   force =    -0.04624701    0.04624475   -0.07784871
     atom   46 type  1   force =    -0.23533397    0.23533541   -0.72356771
     atom   47 type  1   force =     0.20336305   -0.20336048   -0.71316475
     atom   48 type  1   force =     0.07715981   -0.07716066    0.11464673
     atom   49 type  1   force =     2.07262341   -2.07262438    2.40328317
     atom   50 type  1   force =     0.16945248   -0.16944881    0.08948556
     atom   51 type  1   force =    -0.47804906    0.18081036    0.00784492
     atom   52 type  1   force =    -2.40328606   -2.07262437   -2.07262536
     atom   53 type  1   force =     0.20336267   -0.71315938   -0.20336207
     atom   54 type  1   force =     0.17932486    0.13252784   -0.04643724
     atom   55 type  1   force =    -0.13253394   -0.04643142   -0.17932400
     atom   56 type  1   force =    -0.08948544   -0.16945053   -0.16944982
     atom   57 type  1   force =     0.04643424    0.13253034   -0.17932025
     atom   58 type  1   force =     0.16944857    0.08948520   -0.16944894
     atom   59 type  1   force =    -0.04624688   -0.07784727    0.04624521
     atom   60 type  1   force =    -0.11464914   -0.07716404   -0.07716157
     atom   61 type  1   force =    -0.00784672    0.18081218    0.47804663
     atom   62 type  1   force =     0.17932462   -0.04643456    0.13253232
     atom   63 type  2   force =    -3.01186259    3.01186158    3.01186602
     The local contribution  to forces
     atom    1 type  1   force =    -0.01261330    0.01261330    0.01261330
     atom    2 type  1   force =     0.10164485   -0.10164653    0.23525408
     atom    3 type  1   force =     0.06672977   -0.06672977    0.17866807
     atom    4 type  1   force =    -0.15300709    0.15300873    0.07234438
     atom    5 type  1   force =    -0.23525412   -0.10164653   -0.10164821
     atom    6 type  1   force =     0.39771606   -0.87019431   -0.39771932
     atom    7 type  1   force =    -0.50062063    0.56430695   -0.68517380
     atom    8 type  1   force =    -0.13573594   -0.02800563   -0.21328710
     atom    9 type  1   force =    -0.17866804   -0.06672972   -0.06673309
     atom   10 type  1   force =     0.68517158    0.56430644    0.50061763
     atom   11 type  1   force =     0.06672977    0.17866807   -0.06672977
     atom   12 type  1   force =    -0.56430651   -0.68517248    0.50061772
     atom   13 type  1   force =    -0.07234439    0.15300874    0.15300874
     atom   14 type  1   force =     0.21328547   -0.02800566    0.13573755
     atom   15 type  1   force =    -0.50062008   -0.68517167    0.56430325
     atom   16 type  1   force =    -0.73374529   -0.48748373    0.73374365
     atom   17 type  1   force =     0.10164485    0.23525410   -0.10164821
     atom   18 type  1   force =     0.87019447   -0.39771943   -0.39771780
     atom   19 type  1   force =    -0.56430530    0.50062062   -0.68517553
     atom   20 type  1   force =     0.02800568    0.13573761   -0.21328878
     atom   21 type  1   force =     0.39771621   -0.39771701   -0.87019685
     atom   22 type  1   force =    -0.73374622    0.73374785   -0.48748824
     atom   23 type  1   force =    -0.02694680    0.02694680    0.06717935
     atom   24 type  1   force =     0.68517194    0.50062045    0.56430682
     atom   25 type  1   force =     0.48748286    0.73374731    0.73374731
     atom   26 type  1   force =    -0.15300872    0.07234436    0.15300544
     atom   27 type  1   force =     0.02800567   -0.21328712    0.13573758
     atom   28 type  1   force =     0.21328547    0.13573755   -0.02800566
     atom   29 type  1   force =    -0.06717935    0.02694680    0.02694680
     atom   30 type  1   force =    -0.13573594   -0.21328710   -0.02800563
     atom   31 type  1   force =    -0.02694680    0.06717935    0.02694680
     atom   32 type  1   force =    -0.06235213   -0.04130232   -0.04130317
     atom   33 type  1   force =    -0.07246505   -0.09435215    0.07246241
     atom   34 type  1   force =     0.12944777    0.02362417   -0.45519144
     atom   35 type  1   force =     0.02673965    0.14678910   -0.11185711
     atom   36 type  1   force =    -0.66807857   -0.22742997   -0.22743156
     atom   37 type  1   force =     0.45519154    0.02362424   -0.12945108
     atom   38 type  1   force =     0.22743001    0.66807950   -0.22743160
     atom   39 type  1   force =    -0.02362572   -0.45519014   -0.12944777
     atom   40 type  1   force =    -0.65795547    0.20344702    0.20344389
     atom   41 type  1   force =     0.11185361    0.14678916   -0.02674145
     atom   42 type  1   force =     0.12944777   -0.45519144    0.02362417
     atom   43 type  1   force =    -1.80274435   -2.14902446    1.80274321
     atom   44 type  1   force =    -0.06694696    0.06694532    0.06694532
     atom   45 type  1   force =     0.04129967   -0.04130053    0.06234953
     atom   46 type  1   force =     0.22742979   -0.22742979    0.66807577
     atom   47 type  1   force =    -0.20344532    0.20344373    0.65795263
     atom   48 type  1   force =    -0.07246485    0.07246443   -0.09435557
     atom   49 type  1   force =    -1.80274499    1.80274385   -2.14902632
     atom   50 type  1   force =    -0.13996255    0.13996344   -0.01612455
     atom   51 type  1   force =     0.45518775   -0.12944767    0.02362402
     atom   52 type  1   force =     2.14902508    1.80274610    1.80274385
     atom   53 type  1   force =    -0.20344560    0.65796006    0.20344401
     atom   54 type  1   force =    -0.14678810   -0.11185614   -0.02674481
     atom   55 type  1   force =     0.11185380   -0.02673817    0.14678587
     atom   56 type  1   force =     0.01612268    0.13996008    0.13996008
     atom   57 type  1   force =     0.02673967   -0.11185623    0.14678913
     atom   58 type  1   force =    -0.13996348   -0.01612277    0.13995996
     atom   59 type  1   force =     0.04129976    0.06235293   -0.04130228
     atom   60 type  1   force =     0.09435225    0.07246255    0.07246165
     atom   61 type  1   force =    -0.02362578   -0.12944781   -0.45519152
     atom   62 type  1   force =    -0.14678732   -0.02674143   -0.11185712
     atom   63 type  2   force =     2.34615906   -2.34615906   -2.34615906
     The core correction contribution to forces
[...]
     atom   32 type  1   force =     0.00000000    0.00000000    0.00000000
     atom   33 type  1   force =     0.00000000    0.00000000    0.00000000
     atom   34 type  1   force =     0.00000000    0.00000000    0.00000000
     atom   35 type  1   force =     0.00000000    0.00000000    0.00000000
     atom   36 type  1   force =     0.00000000    0.00000000    0.00000000
     atom   37 type  1   force =     0.00000000    0.00000000    0.00000000
     atom   38 type  1   force =     0.00000000    0.00000000    0.00000000
     atom   39 type  1   force =     0.00000000    0.00000000    0.00000000
     atom   40 type  1   force =     0.00000000    0.00000000    0.00000000
     atom   41 type  1   force =     0.00000000    0.00000000    0.00000000
     atom   42 type  1   force =     0.00000000    0.00000000    0.00000000
     atom   43 type  1   force =     0.00000000    0.00000000    0.00000000
     atom   44 type  1   force =     0.00000000    0.00000000    0.00000000
     atom   45 type  1   force =     0.00000000    0.00000000    0.00000000
     atom   46 type  1   force =     0.00000000    0.00000000    0.00000000
     atom   47 type  1   force =     0.00000000    0.00000000    0.00000000
     atom   48 type  1   force =     0.00000000    0.00000000    0.00000000
     atom   49 type  1   force =     0.00000000    0.00000000    0.00000000
     atom   50 type  1   force =     0.00000000    0.00000000    0.00000000
     atom   51 type  1   force =     0.00000000    0.00000000    0.00000000
     atom   52 type  1   force =     0.00000000    0.00000000    0.00000000
     atom   53 type  1   force =     0.00000000    0.00000000    0.00000000
     atom   54 type  1   force =     0.00000000    0.00000000    0.00000000
     atom   55 type  1   force =     0.00000000    0.00000000    0.00000000
     atom   56 type  1   force =     0.00000000    0.00000000    0.00000000
     atom   57 type  1   force =     0.00000000    0.00000000    0.00000000
     atom   58 type  1   force =     0.00000000    0.00000000    0.00000000
     atom   59 type  1   force =     0.00000000    0.00000000    0.00000000
     atom   60 type  1   force =     0.00000000    0.00000000    0.00000000
     atom   61 type  1   force =     0.00000000    0.00000000    0.00000000
     atom   62 type  1   force =     0.00000000    0.00000000    0.00000000
     atom   63 type  2   force =     0.00000000    0.00000000    0.00000000
     The Hubbard contrib.    to forces
     atom    1 type  1   force =     0.00000000    0.00000000    0.00000000
     atom    2 type  1   force =     0.00000000    0.00000000    0.00000000
     atom    3 type  1   force =     0.00000000    0.00000000    0.00000000
     atom    4 type  1   force =     0.00000000    0.00000000    0.00000000
     atom    5 type  1   force =     0.00000000    0.00000000    0.00000000
     atom    6 type  1   force =     0.00000000    0.00000000    0.00000000
     atom    7 type  1   force =     0.00000000    0.00000000    0.00000000
     atom    8 type  1   force =     0.00000000    0.00000000    0.00000000
     atom    9 type  1   force =     0.00000000    0.00000000    0.00000000
     atom   10 type  1   force =     0.00000000    0.00000000    0.00000000
     atom   11 type  1   force =     0.00000000    0.00000000    0.00000000
     atom   12 type  1   force =     0.00000000    0.00000000    0.00000000
     atom   13 type  1   force =     0.00000000    0.00000000    0.00000000
     atom   14 type  1   force =     0.00000000    0.00000000    0.00000000
     atom   15 type  1   force =     0.00000000    0.00000000    0.00000000
     atom   16 type  1   force =     0.00000000    0.00000000    0.00000000
     atom   17 type  1   force =     0.00000000    0.00000000    0.00000000
     atom   18 type  1   force =     0.00000000    0.00000000    0.00000000
     atom   19 type  1   force =     0.00000000    0.00000000    0.00000000
     atom   20 type  1   force =     0.00000000    0.00000000    0.00000000
     atom   21 type  1   force =     0.00000000    0.00000000    0.00000000
     atom   22 type  1   force =     0.00000000    0.00000000    0.00000000
     atom   23 type  1   force =     0.00000000    0.00000000    0.00000000
     atom   24 type  1   force =     0.00000000    0.00000000    0.00000000
     atom   25 type  1   force =     0.00000000    0.00000000    0.00000000
     atom   26 type  1   force =     0.00000000    0.00000000    0.00000000
     atom   27 type  1   force =     0.00000000    0.00000000    0.00000000
     atom   28 type  1   force =     0.00000000    0.00000000    0.00000000
     atom   29 type  1   force =     0.00000000    0.00000000    0.00000000
     atom   30 type  1   force =     0.00000000    0.00000000    0.00000000
     atom   31 type  1   force =     0.00000000    0.00000000    0.00000000
     atom   32 type  1   force =     0.00000000    0.00000000    0.00000000
     atom   33 type  1   force =     0.00000000    0.00000000    0.00000000
     atom   34 type  1   force =     0.00000000    0.00000000    0.00000000
     atom   35 type  1   force =     0.00000000    0.00000000    0.00000000
     atom   36 type  1   force =     0.00000000    0.00000000    0.00000000
     atom   37 type  1   force =     0.00000000    0.00000000    0.00000000
     atom   38 type  1   force =     0.00000000    0.00000000    0.00000000
     atom   39 type  1   force =     0.00000000    0.00000000    0.00000000
     atom   40 type  1   force =     0.00000000    0.00000000    0.00000000
     atom   41 type  1   force =     0.00000000    0.00000000    0.00000000
     atom   42 type  1   force =     0.00000000    0.00000000    0.00000000
     atom   43 type  1   force =     0.00000000    0.00000000    0.00000000
     atom   44 type  1   force =     0.00000000    0.00000000    0.00000000
     atom   45 type  1   force =     0.00000000    0.00000000    0.00000000
     atom   46 type  1   force =     0.00000000    0.00000000    0.00000000
     atom   47 type  1   force =     0.00000000    0.00000000    0.00000000
     atom   48 type  1   force =     0.00000000    0.00000000    0.00000000
     atom   49 type  1   force =     0.00000000    0.00000000    0.00000000
     atom   50 type  1   force =     0.00000000    0.00000000    0.00000000
     atom   51 type  1   force =     0.00000000    0.00000000    0.00000000
     atom   52 type  1   force =     0.00000000    0.00000000    0.00000000
     atom   53 type  1   force =     0.00000000    0.00000000    0.00000000
     atom   54 type  1   force =     0.00000000    0.00000000    0.00000000
     atom   55 type  1   force =     0.00000000    0.00000000    0.00000000
     atom   56 type  1   force =     0.00000000    0.00000000    0.00000000
     atom   57 type  1   force =     0.00000000    0.00000000    0.00000000
     atom   58 type  1   force =     0.00000000    0.00000000    0.00000000
     atom   59 type  1   force =     0.00000000    0.00000000    0.00000000
     atom   60 type  1   force =     0.00000000    0.00000000    0.00000000
     atom   61 type  1   force =     0.00000000    0.00000000    0.00000000
     atom   62 type  1   force =     0.00000000    0.00000000    0.00000000
     atom   63 type  2   force =     0.00000000    0.00000000    0.00000000
     The SCF correction term to forces
     atom    1 type  1   force =    -0.00000022    0.00000022    0.00000022
     atom    2 type  1   force =     0.00000000   -0.00000000    0.00000002
     atom    3 type  1   force =     0.00000012   -0.00000012    0.00000007
     atom    4 type  1   force =     0.00000017   -0.00000017    0.00000033
     atom    5 type  1   force =    -0.00000002   -0.00000000   -0.00000000
     atom    6 type  1   force =    -0.00000000    0.00000005    0.00000000
     atom    7 type  1   force =     0.00000014    0.00000008    0.00000000
     atom    8 type  1   force =    -0.00000007    0.00000009    0.00000007
     atom    9 type  1   force =    -0.00000007   -0.00000012   -0.00000012
     atom   10 type  1   force =    -0.00000000    0.00000008   -0.00000014
     atom   11 type  1   force =     0.00000012    0.00000007   -0.00000012
     atom   12 type  1   force =    -0.00000008    0.00000000   -0.00000014
     atom   13 type  1   force =    -0.00000033   -0.00000017   -0.00000017
     atom   14 type  1   force =    -0.00000007    0.00000009    0.00000007
     atom   15 type  1   force =     0.00000014    0.00000000    0.00000008
     atom   16 type  1   force =     0.00000002   -0.00000031   -0.00000002
     atom   17 type  1   force =     0.00000000    0.00000002   -0.00000000
     atom   18 type  1   force =    -0.00000005    0.00000000    0.00000000
     atom   19 type  1   force =    -0.00000008   -0.00000014    0.00000000
     atom   20 type  1   force =    -0.00000009    0.00000007    0.00000007
     atom   21 type  1   force =    -0.00000000    0.00000000    0.00000005
     atom   22 type  1   force =     0.00000002   -0.00000002   -0.00000031
     atom   23 type  1   force =    -0.00000011    0.00000011   -0.00000015
     atom   24 type  1   force =    -0.00000000   -0.00000014    0.00000008
     atom   25 type  1   force =     0.00000031   -0.00000002   -0.00000002
     atom   26 type  1   force =     0.00000017    0.00000033   -0.00000017
     atom   27 type  1   force =    -0.00000009    0.00000007    0.00000007
     atom   28 type  1   force =    -0.00000007    0.00000007    0.00000009
     atom   29 type  1   force =     0.00000015    0.00000011    0.00000011
     atom   30 type  1   force =    -0.00000007    0.00000007    0.00000009
     atom   31 type  1   force =    -0.00000011   -0.00000015    0.00000011
     atom   32 type  1   force =    -0.00000025    0.00000008    0.00000008
     atom   33 type  1   force =    -0.00000012   -0.00000007    0.00000012
     atom   34 type  1   force =     0.00000017    0.00000003    0.00000022
     atom   35 type  1   force =     0.00000011   -0.00000003    0.00000028
     atom   36 type  1   force =    -0.00000011   -0.00000017   -0.00000017
     atom   37 type  1   force =    -0.00000022    0.00000003   -0.00000017
     atom   38 type  1   force =     0.00000017    0.00000011   -0.00000017
     atom   39 type  1   force =    -0.00000003    0.00000022   -0.00000017
     atom   40 type  1   force =    -0.00000015   -0.00000026   -0.00000026
     atom   41 type  1   force =    -0.00000028   -0.00000003   -0.00000011
     atom   42 type  1   force =     0.00000017    0.00000022    0.00000003
     atom   43 type  1   force =     0.00000006   -0.00000026   -0.00000006
     atom   44 type  1   force =    -0.00000018    0.00000018    0.00000018
     atom   45 type  1   force =    -0.00000008    0.00000008    0.00000025
     atom   46 type  1   force =     0.00000017   -0.00000017    0.00000011
     atom   47 type  1   force =     0.00000026   -0.00000026    0.00000015
     atom   48 type  1   force =    -0.00000012    0.00000012   -0.00000007
     atom   49 type  1   force =     0.00000006   -0.00000006   -0.00000026
     atom   50 type  1   force =    -0.00000003    0.00000003   -0.00000019
     atom   51 type  1   force =    -0.00000022   -0.00000017    0.00000003
     atom   52 type  1   force =     0.00000026   -0.00000006   -0.00000006
     atom   53 type  1   force =     0.00000026    0.00000015   -0.00000026
     atom   54 type  1   force =     0.00000003    0.00000028   -0.00000011
     atom   55 type  1   force =    -0.00000028   -0.00000011   -0.00000003
     atom   56 type  1   force =     0.00000019    0.00000003    0.00000003
     atom   57 type  1   force =     0.00000011    0.00000028   -0.00000003
     atom   58 type  1   force =    -0.00000003   -0.00000019    0.00000003
     atom   59 type  1   force =    -0.00000008    0.00000025    0.00000008
     atom   60 type  1   force =     0.00000007    0.00000012    0.00000012
     atom   61 type  1   force =    -0.00000003   -0.00000017    0.00000022
     atom   62 type  1   force =     0.00000003   -0.00000011    0.00000028
     atom   63 type  2   force =    -0.00000001    0.00000001    0.00000001

     Total force =     0.000466     Total SCF correction =     0.000002
     Energy error            =      5.5E-07 Ry
     Gradient error          =      7.7E-05 Ry/Bohr

     bfgs converged in   4 scf cycles and   3 bfgs steps
     (criteria: energy <  1.0E-05 Ry, force <  1.0E-04 Ry/Bohr)

     End of BFGS Geometry Optimization

     Final energy             =    -724.7077376760 Ry

     File ./di.bfgs deleted, as requested
Begin final coordinates

ATOMIC_POSITIONS (crystal)
C             0.0002031254       -0.0002031254       -0.0002031254
C             0.7496506810        0.2503493520       -0.0007939531
C             0.5000852737        0.4999147263       -0.0004663322
C             0.2504600792        0.7495398878       -0.0007901890
C             0.0007939531        0.2503493520        0.2503493850
C             0.7485159417        0.4965316728        0.2514841243
C             0.4978656680        0.7487280711        0.2509105902
C             0.2507711945        0.0007701750        0.2500451652
C             0.0004663322        0.4999147263        0.4999147933
C             0.7490894428        0.7487280711        0.5021343990
C             0.5000852737       -0.0004663322        0.4999147263
C             0.2512719289        0.2509105732        0.5021343990
C             0.0007901890        0.7495398878        0.7495398878
C             0.7499548678        0.0007701750        0.7492287725
C             0.4978656680        0.2509105572        0.7487281371
C             0.2513602330        0.4983017693        0.7486398000
C             0.7496506810       -0.0007939531        0.2503493850
C             0.5034683272        0.2514841243        0.2514840913
C             0.2512718959        0.5021343320        0.2509106232
C            -0.0007701750        0.7492287725        0.2500451982
C             0.7485159417        0.2514840743        0.4965317398
C             0.2513602330        0.7486397340        0.4983018693
C            -0.0005142662        0.0005142662        0.5002304442
C             0.7490894428        0.5021343320        0.7487280711
C             0.5016982647        0.7486397340        0.7486397340
C             0.2504601122       -0.0007901890        0.7495399538
C            -0.0007701750        0.2500451652        0.7492287725
C             0.7499548678        0.7492287725        0.0007701750
C             0.4997695558        0.0005142662        0.0005142662
C             0.2507711945        0.2500451652        0.0007701750
C            -0.0005142662        0.5002304442        0.0005142662
C             0.1254935398        0.1252342462        0.1252342632
C             0.8753437505        0.3748139026        0.1246562995
C             0.6236479093        0.6235620240        0.1264875501
C             0.3756988162        0.8761819953        0.1235545113
C             0.1263961744        0.3756739358        0.3756739698
C             0.8735124499        0.6235620240        0.3763521577
C             0.6243260642        0.8736038086        0.3756739698
C             0.3764380100        0.1264875251        0.3763520907
C             0.1262700880        0.6242465750        0.6242466420
C             0.8764455557        0.8761819953        0.6243012178
C             0.6236479093        0.1264875501        0.6235620240
C             0.3634092216        0.3617063685        0.6365908124
C             0.1255184970        0.8744815360        0.8744815360
C             0.8747658038        0.1252342132        0.8745065102
C             0.6243260642        0.3756739358        0.8736038756
C             0.3757533920        0.6242466420        0.8737299620
C             0.8753437505        0.1246562575        0.3748139696
C             0.3634092216        0.6365908124        0.3617064025
C             0.1237757353        0.8762242477        0.3756149528
C             0.8735125169        0.3763520907        0.6235620240
C             0.6382936315        0.6365907454        0.6365908124
C             0.3757533920        0.8737298280        0.6242466420
C             0.1238179877        0.1235544943        0.6243012848
C             0.8764455557        0.6243011508        0.8761820623
C             0.6243850812        0.8762243147        0.8762243147
C             0.3756988162        0.1235544943        0.8761819953
C             0.1237757523        0.3756149188        0.8762243147
C             0.8747658038        0.8745064432        0.1252342462
C             0.6251860974        0.1246562995        0.1246563165
C             0.3764380100        0.3763520907        0.1264875501
C             0.1238179707        0.6243012178        0.1235545113
N             0.6319169292        0.3680830708        0.3680830708
End final coordinates



     Writing all to output data dir ./di.save/
 
     init_run     :      2.07s CPU      2.75s WALL (       1 calls)
     electrons    :    169.31s CPU    171.94s WALL (       4 calls)
     update_pot   :      0.24s CPU      0.25s WALL (       3 calls)
     forces       :      3.99s CPU      4.03s WALL (       4 calls)

     Called by init_run:
     wfcinit      :      1.84s CPU      2.02s WALL (       1 calls)
     wfcinit:atom :      0.03s CPU      0.07s WALL (       8 calls)
     wfcinit:wfcr :      1.52s CPU      1.60s WALL (       8 calls)
     potinit      :      0.06s CPU      0.17s WALL (       1 calls)
     hinit0       :      0.10s CPU      0.27s WALL (       1 calls)

     Called by electrons:
     c_bands      :    156.97s CPU    159.09s WALL (      39 calls)
     sum_band     :     10.55s CPU     10.74s WALL (      39 calls)
     v_of_rho     :      1.51s CPU      1.57s WALL (      40 calls)
     v_h          :      0.05s CPU      0.06s WALL (      40 calls)
     v_xc         :      1.46s CPU      1.49s WALL (      40 calls)
     mix_rho      :      0.32s CPU      0.35s WALL (      39 calls)

     Called by c_bands:
     init_us_2    :      3.21s CPU      3.24s WALL (     664 calls)
     init_us_2:cp :      3.21s CPU      3.24s WALL (     664 calls)
     cegterg      :    145.85s CPU    147.84s WALL (     312 calls)

     Called by sum_band:
     sum_band:wei :      0.01s CPU      0.01s WALL (      39 calls)
     sum_band:loo :     10.30s CPU     10.42s WALL (      39 calls)
     sum_band:buf :      0.53s CPU      0.54s WALL (     312 calls)
     sum_band:ini :      1.52s CPU      1.52s WALL (     312 calls)

     Called by *egterg:
     cdiaghg      :     23.38s CPU     23.53s WALL (    1581 calls)
     cegterg:over :     16.53s CPU     16.60s WALL (    1317 calls)
     cegterg:upda :     14.69s CPU     14.89s WALL (    1317 calls)
     cegterg:last :     17.30s CPU     17.38s WALL (     734 calls)
     cdiaghg:chol :      1.44s CPU      1.47s WALL (    1581 calls)
     cdiaghg:inve :      0.55s CPU      0.56s WALL (    1581 calls)
     cdiaghg:para :      4.17s CPU      4.21s WALL (    3162 calls)
     h_psi        :     66.31s CPU     67.06s WALL (    1637 calls)
     g_psi        :      0.61s CPU      0.61s WALL (    1317 calls)

     Called by h_psi:
     h_psi:calbec :     11.73s CPU     11.78s WALL (    1637 calls)
     vloc_psi     :     40.83s CPU     41.32s WALL (    1637 calls)
     add_vuspsi   :     13.07s CPU     13.11s WALL (    1637 calls)

     General routines
     calbec       :     14.49s CPU     14.55s WALL (    1765 calls)
     fft          :      0.45s CPU      0.46s WALL (     765 calls)
     ffts         :      0.05s CPU      0.05s WALL (      78 calls)
     fftw         :     41.42s CPU     41.88s WALL (  157882 calls)
 
     Parallel routines
 
     PWSCF        :   2m56.38s CPU   3m 2.23s WALL

 
   This run was terminated on:  11:24:29  29Jan2024            

=------------------------------------------------------------------------------=
   JOB DONE.
=------------------------------------------------------------------------------=
