
     Program PWSCF v.6.1 (svn rev. 13369) starts on 19Oct2018 at 17: 5:58 

     This program is part of the open-source Quantum ESPRESSO suite
     for quantum simulation of materials; please cite
         "P. Giannozzi et al., J. Phys.:Condens. Matter 21 395502 (2009);
          URL http://www.quantum-espresso.org", 
     in publications or presentations arising from this work. More details at
     http://www.quantum-espresso.org/quote

     Parallel version (MPI), running on    32 processors
     K-points division:     npool     =       2
     R & G space division:  proc/nbgrp/npool/nimage =      16
     Waiting for input...
     Reading input from standard input
Warning: card  &CELL ignored
Warning: card  / ignored

     Current dimensions of program PWSCF are:
     Max number of different atomic species (ntypx) = 10
     Max number of k-points (npk) =  40000
     Max angular momentum in pseudopotentials (lmaxx) =  3

     Subspace diagonalization in iterative solution of the eigenvalue problem:
     one sub-group per band group will be used
     scalapack distributed-memory algorithm (size of sub-group:  2*  2 procs)

 
     Parallelization info
     --------------------
     sticks:   dense  smooth     PW     G-vecs:    dense   smooth      PW
     Min         252     252     66                12125    12125    1624
     Max         254     254     67                12129    12129    1627
     Sum        4049    4049   1069               194039   194039   26001
 


     bravais-lattice index     =            0
     lattice parameter (alat)  =      13.4862  a.u.
     unit-cell volume          =    2452.8359 (a.u.)^3
     number of atoms/cell      =           63
     number of atomic types    =            2
     number of electrons       =       254.00
     number of Kohn-Sham states=          152
     kinetic-energy cutoff     =      70.0000  Ry
     charge density cutoff     =     280.0000  Ry
     convergence threshold     =      1.0E-06
     mixing beta               =       0.7000
     number of iterations used =            8  plain     mixing
     Exchange-correlation      = PBE ( 1  4  3  4 0 0)
     nstep                     =           50


     celldm(1)=  13.486197  celldm(2)=   0.000000  celldm(3)=   0.000000
     celldm(4)=   0.000000  celldm(5)=   0.000000  celldm(6)=   0.000000

     crystal axes: (cart. coord. in units of alat)
               a(1) = (   1.000000   0.000000   0.000000 )  
               a(2) = (   0.000000   1.000000   0.000000 )  
               a(3) = (   0.000000   0.000000   1.000000 )  

     reciprocal axes: (cart. coord. in units 2 pi/alat)
               b(1) = (  1.000000  0.000000  0.000000 )  
               b(2) = (  0.000000  1.000000  0.000000 )  
               b(3) = (  0.000000  0.000000  1.000000 )  


     PseudoPot. # 1 for C  read from file:
     ./C_ONCV_PBE-1.0.upf
     MD5 check sum: 72b63e32b2fd29504de26a4901699f60
     Pseudo is Norm-conserving, Zval =  4.0
     Generated using ONCVPSP code by D. R. Hamann
     Using radial grid of 1248 points,  4 beta functions with: 
                l(1) =   0
                l(2) =   0
                l(3) =   1
                l(4) =   1

     PseudoPot. # 2 for N  read from file:
     ./N_ONCV_PBE-1.0.upf
     MD5 check sum: 09890da6b2972017450f7114a6086fad
     Pseudo is Norm-conserving, Zval =  5.0
     Generated using ONCVPSP code by D. R. Hamann
     Using radial grid of 1058 points,  4 beta functions with: 
                l(1) =   0
                l(2) =   0
                l(3) =   1
                l(4) =   1

     atomic species   valence    mass     pseudopotential
        C              4.00    12.01110     C ( 1.00)
        N              5.00    14.00670     N ( 1.00)

     Starting magnetic structure 
     atomic species   magnetization
        C            0.000
        N            1.000

      6 Sym. Ops. (no inversion) found


                                    s                        frac. trans.

      isym =  1     identity                                     

 cryst.   s( 1) = (     1          0          0      )
                  (     0          1          0      )
                  (     0          0          1      )

 cart.    s( 1) = (  1.0000000  0.0000000  0.0000000 )
                  (  0.0000000  1.0000000  0.0000000 )
                  (  0.0000000  0.0000000  1.0000000 )


      isym =  2     120 deg rotation - cart. axis [-1,1,1]       

 cryst.   s( 2) = (     0          0         -1      )
                  (    -1          0          0      )
                  (     0          1          0      )

 cart.    s( 2) = (  0.0000000 -1.0000000  0.0000000 )
                  (  0.0000000  0.0000000  1.0000000 )
                  ( -1.0000000  0.0000000  0.0000000 )


      isym =  3     120 deg rotation - cart. axis [1,-1,-1]      

 cryst.   s( 3) = (     0         -1          0      )
                  (     0          0          1      )
                  (    -1          0          0      )

 cart.    s( 3) = (  0.0000000  0.0000000 -1.0000000 )
                  ( -1.0000000  0.0000000  0.0000000 )
                  (  0.0000000  1.0000000  0.0000000 )


      isym =  4     inv. 180 deg rotation - cart. axis [1,1,0]   

 cryst.   s( 4) = (     0         -1          0      )
                  (    -1          0          0      )
                  (     0          0          1      )

 cart.    s( 4) = (  0.0000000 -1.0000000  0.0000000 )
                  ( -1.0000000  0.0000000  0.0000000 )
                  (  0.0000000  0.0000000  1.0000000 )


      isym =  5     inv. 180 deg rotation - cart. axis [1,0,1]   

 cryst.   s( 5) = (     0          0         -1      )
                  (     0          1          0      )
                  (    -1          0          0      )

 cart.    s( 5) = (  0.0000000  0.0000000 -1.0000000 )
                  (  0.0000000  1.0000000  0.0000000 )
                  ( -1.0000000  0.0000000  0.0000000 )


      isym =  6     inv. 180 deg rotation - cart. axis [0,1,-1]  

 cryst.   s( 6) = (     1          0          0      )
                  (     0          0          1      )
                  (     0          1          0      )

 cart.    s( 6) = (  1.0000000  0.0000000  0.0000000 )
                  (  0.0000000  0.0000000  1.0000000 )
                  (  0.0000000  1.0000000  0.0000000 )


   Cartesian axes

     site n.     atom                  positions (alat units)
         1           C   tau(   1) = (   0.0000000   0.0000000   0.0000000  )
         2           C   tau(   2) = (   0.7500000   0.2500000   0.0000000  )
         3           C   tau(   3) = (   0.5000000   0.5000000   0.0000000  )
         4           C   tau(   4) = (   0.2500000   0.7500000   0.0000000  )
         5           C   tau(   5) = (   0.0000000   0.2500000   0.2500000  )
         6           C   tau(   6) = (   0.7500000   0.5000000   0.2500000  )
         7           C   tau(   7) = (   0.5000000   0.7500000   0.2500000  )
         8           C   tau(   8) = (   0.2500000   0.0000000   0.2500000  )
         9           C   tau(   9) = (   0.0000000   0.5000000   0.5000001  )
        10           C   tau(  10) = (   0.7500000   0.7500000   0.5000001  )
        11           C   tau(  11) = (   0.5000000   0.0000000   0.5000000  )
        12           C   tau(  12) = (   0.2500000   0.2500000   0.5000001  )
        13           C   tau(  13) = (   0.0000000   0.7500000   0.7500000  )
        14           C   tau(  14) = (   0.7500000   0.0000000   0.7500000  )
        15           C   tau(  15) = (   0.5000000   0.2500000   0.7500000  )
        16           C   tau(  16) = (   0.2500000   0.5000000   0.7500000  )
        17           C   tau(  17) = (   0.7500000   0.0000000   0.2500000  )
        18           C   tau(  18) = (   0.5000000   0.2500000   0.2500000  )
        19           C   tau(  19) = (   0.2500000   0.5000000   0.2500000  )
        20           C   tau(  20) = (   0.0000000   0.7500000   0.2500000  )
        21           C   tau(  21) = (   0.7500000   0.2500000   0.5000001  )
        22           C   tau(  22) = (   0.2500000   0.7500000   0.5000001  )
        23           C   tau(  23) = (   0.0000000   0.0000000   0.5000000  )
        24           C   tau(  24) = (   0.7500000   0.5000000   0.7500000  )
        25           C   tau(  25) = (   0.5000001   0.7500000   0.7500000  )
        26           C   tau(  26) = (   0.2500000   0.0000000   0.7500000  )
        27           C   tau(  27) = (   0.0000000   0.2500000   0.7500000  )
        28           C   tau(  28) = (   0.7500000   0.7500000   0.0000000  )
        29           C   tau(  29) = (   0.5000000   0.0000000   0.0000000  )
        30           C   tau(  30) = (   0.2500000   0.2500000   0.0000000  )
        31           C   tau(  31) = (   0.0000000   0.5000000   0.0000000  )
        32           C   tau(  32) = (   0.1250000   0.1250000   0.1250000  )
        33           C   tau(  33) = (   0.8750001   0.3750000   0.1250000  )
        34           C   tau(  34) = (   0.6250000   0.6250000   0.1250000  )
        35           C   tau(  35) = (   0.3750000   0.8750000   0.1250000  )
        36           C   tau(  36) = (   0.1250000   0.3750000   0.3750000  )
        37           C   tau(  37) = (   0.8750000   0.6250000   0.3750000  )
        38           C   tau(  38) = (   0.6250000   0.8750000   0.3750000  )
        39           C   tau(  39) = (   0.3750000   0.1250000   0.3750000  )
        40           C   tau(  40) = (   0.1250000   0.6249999   0.6250000  )
        41           C   tau(  41) = (   0.8750001   0.8750000   0.6250000  )
        42           C   tau(  42) = (   0.6250000   0.1250000   0.6250000  )
        43           C   tau(  43) = (   0.3750000   0.3750000   0.6250000  )
        44           C   tau(  44) = (   0.1250000   0.8750001   0.8750001  )
        45           C   tau(  45) = (   0.8750001   0.1250000   0.8750001  )
        46           C   tau(  46) = (   0.6250000   0.3750000   0.8750001  )
        47           C   tau(  47) = (   0.3750000   0.6250000   0.8750001  )
        48           C   tau(  48) = (   0.8750001   0.1250000   0.3750000  )
        49           C   tau(  49) = (   0.3750000   0.6250000   0.3750000  )
        50           C   tau(  50) = (   0.1250000   0.8750000   0.3750000  )
        51           C   tau(  51) = (   0.8750001   0.3750000   0.6250000  )
        52           C   tau(  52) = (   0.6250000   0.6249999   0.6250000  )
        53           C   tau(  53) = (   0.3750000   0.8749999   0.6250000  )
        54           C   tau(  54) = (   0.1250000   0.1250000   0.6250001  )
        55           C   tau(  55) = (   0.8750001   0.6249999   0.8750001  )
        56           C   tau(  56) = (   0.6250000   0.8750001   0.8750001  )
        57           C   tau(  57) = (   0.3750000   0.1250000   0.8750000  )
        58           C   tau(  58) = (   0.1250000   0.3750000   0.8750001  )
        59           C   tau(  59) = (   0.8750001   0.8750000   0.1250000  )
        60           C   tau(  60) = (   0.6250000   0.1250000   0.1250000  )
        61           C   tau(  61) = (   0.3750000   0.3750000   0.1250000  )
        62           C   tau(  62) = (   0.1250000   0.6250000   0.1250000  )
        63           N   tau(  63) = (   0.6250000   0.3750000   0.3750000  )

   Crystallographic axes

     site n.     atom                  positions (cryst. coord.)
         1           C   tau(   1) = (  0.0000000  0.0000000  0.0000000  )
         2           C   tau(   2) = (  0.7500000  0.2500000  0.0000000  )
         3           C   tau(   3) = (  0.5000000  0.5000000  0.0000000  )
         4           C   tau(   4) = (  0.2500000  0.7500000  0.0000000  )
         5           C   tau(   5) = (  0.0000000  0.2500000  0.2500000  )
         6           C   tau(   6) = (  0.7500000  0.5000000  0.2500000  )
         7           C   tau(   7) = (  0.5000000  0.7500000  0.2500000  )
         8           C   tau(   8) = (  0.2500000  0.0000000  0.2500000  )
         9           C   tau(   9) = (  0.0000000  0.5000000  0.5000001  )
        10           C   tau(  10) = (  0.7500000  0.7500000  0.5000001  )
        11           C   tau(  11) = (  0.5000000  0.0000000  0.5000000  )
        12           C   tau(  12) = (  0.2500000  0.2500000  0.5000001  )
        13           C   tau(  13) = (  0.0000000  0.7500000  0.7500000  )
        14           C   tau(  14) = (  0.7500000  0.0000000  0.7500000  )
        15           C   tau(  15) = (  0.5000000  0.2500000  0.7500000  )
        16           C   tau(  16) = (  0.2500000  0.5000000  0.7500000  )
        17           C   tau(  17) = (  0.7500000  0.0000000  0.2500000  )
        18           C   tau(  18) = (  0.5000000  0.2500000  0.2500000  )
        19           C   tau(  19) = (  0.2500000  0.5000000  0.2500000  )
        20           C   tau(  20) = (  0.0000000  0.7500000  0.2500000  )
        21           C   tau(  21) = (  0.7500000  0.2500000  0.5000001  )
        22           C   tau(  22) = (  0.2500000  0.7500000  0.5000001  )
        23           C   tau(  23) = (  0.0000000  0.0000000  0.5000000  )
        24           C   tau(  24) = (  0.7500000  0.5000000  0.7500000  )
        25           C   tau(  25) = (  0.5000001  0.7500000  0.7500000  )
        26           C   tau(  26) = (  0.2500000  0.0000000  0.7500000  )
        27           C   tau(  27) = (  0.0000000  0.2500000  0.7500000  )
        28           C   tau(  28) = (  0.7500000  0.7500000  0.0000000  )
        29           C   tau(  29) = (  0.5000000  0.0000000  0.0000000  )
        30           C   tau(  30) = (  0.2500000  0.2500000  0.0000000  )
        31           C   tau(  31) = (  0.0000000  0.5000000  0.0000000  )
        32           C   tau(  32) = (  0.1250000  0.1250000  0.1250000  )
        33           C   tau(  33) = (  0.8750001  0.3750000  0.1250000  )
        34           C   tau(  34) = (  0.6250000  0.6250000  0.1250000  )
        35           C   tau(  35) = (  0.3750000  0.8750000  0.1250000  )
        36           C   tau(  36) = (  0.1250000  0.3750000  0.3750000  )
        37           C   tau(  37) = (  0.8750000  0.6250000  0.3750000  )
        38           C   tau(  38) = (  0.6250000  0.8750000  0.3750000  )
        39           C   tau(  39) = (  0.3750000  0.1250000  0.3750000  )
        40           C   tau(  40) = (  0.1250000  0.6249999  0.6250000  )
        41           C   tau(  41) = (  0.8750001  0.8750000  0.6250000  )
        42           C   tau(  42) = (  0.6250000  0.1250000  0.6250000  )
        43           C   tau(  43) = (  0.3750000  0.3750000  0.6250000  )
        44           C   tau(  44) = (  0.1250000  0.8750001  0.8750001  )
        45           C   tau(  45) = (  0.8750001  0.1250000  0.8750001  )
        46           C   tau(  46) = (  0.6250000  0.3750000  0.8750001  )
        47           C   tau(  47) = (  0.3750000  0.6250000  0.8750001  )
        48           C   tau(  48) = (  0.8750001  0.1250000  0.3750000  )
        49           C   tau(  49) = (  0.3750000  0.6250000  0.3750000  )
        50           C   tau(  50) = (  0.1250000  0.8750000  0.3750000  )
        51           C   tau(  51) = (  0.8750001  0.3750000  0.6250000  )
        52           C   tau(  52) = (  0.6250000  0.6249999  0.6250000  )
        53           C   tau(  53) = (  0.3750000  0.8749999  0.6250000  )
        54           C   tau(  54) = (  0.1250000  0.1250000  0.6250001  )
        55           C   tau(  55) = (  0.8750001  0.6249999  0.8750001  )
        56           C   tau(  56) = (  0.6250000  0.8750001  0.8750001  )
        57           C   tau(  57) = (  0.3750000  0.1250000  0.8750000  )
        58           C   tau(  58) = (  0.1250000  0.3750000  0.8750001  )
        59           C   tau(  59) = (  0.8750001  0.8750000  0.1250000  )
        60           C   tau(  60) = (  0.6250000  0.1250000  0.1250000  )
        61           C   tau(  61) = (  0.3750000  0.3750000  0.1250000  )
        62           C   tau(  62) = (  0.1250000  0.6250000  0.1250000  )
        63           N   tau(  63) = (  0.6250000  0.3750000  0.3750000  )

     number of k points=     2  Marzari-Vanderbilt smearing, width (Ry)=  0.0010
                       cart. coord. in units 2pi/alat
        k(    1) = (   0.2500000   0.2500000   0.2500000), wk =   0.7500000
        k(    2) = (  -0.2500000   0.2500000   0.2500000), wk =   0.2500000

                       cryst. coord.
        k(    1) = (   0.2500000   0.2500000   0.2500000), wk =   0.7500000
        k(    2) = (  -0.2500000   0.2500000   0.2500000), wk =   0.2500000

     Dense  grid:   194039 G-vectors     FFT dimensions: (  72,  72,  72)

     Estimated max dynamical RAM per process >      51.77MB

     Estimated total allocated dynamical RAM >    1656.77MB
     Generating pointlists ...
     new r_m :   0.0893 (alat units)  1.2044 (a.u.) for type    1
     new r_m :   0.0893 (alat units)  1.2044 (a.u.) for type    2

     Initial potential from superposition of free atoms

     starting charge  252.99722, renormalised to  254.00000
     Starting wfc are  252 randomized atomic wfcs

     total cpu time spent up to now is        2.2 secs

     per-process dynamical memory:    58.7 Mb

     Self-consistent Calculation

     iteration #  1     ecut=    70.00 Ry     beta=0.70
     Davidson diagonalization with overlap
     ethr =  1.00E-02,  avg # of iterations =  3.0

     total cpu time spent up to now is        4.6 secs

     total energy              =    -723.60712550 Ry
     Harris-Foulkes estimate   =    -725.39681028 Ry
     estimated scf accuracy    <       4.37448151 Ry

     total magnetization       =     2.00 Bohr mag/cell
     absolute magnetization    =     3.15 Bohr mag/cell

     iteration #  2     ecut=    70.00 Ry     beta=0.70
     Davidson diagonalization with overlap
     ethr =  1.72E-03,  avg # of iterations =  5.8

     total cpu time spent up to now is        8.2 secs

     total energy              =    -722.85593333 Ry
     Harris-Foulkes estimate   =    -725.41297850 Ry
     estimated scf accuracy    <       5.70795109 Ry

     total magnetization       =     2.00 Bohr mag/cell
     absolute magnetization    =     2.08 Bohr mag/cell

     iteration #  3     ecut=    70.00 Ry     beta=0.70
     Davidson diagonalization with overlap
     ethr =  1.72E-03,  avg # of iterations =  6.0

     total cpu time spent up to now is       11.0 secs

     total energy              =    -724.35659835 Ry
     Harris-Foulkes estimate   =    -724.93831427 Ry
     estimated scf accuracy    <       1.72373506 Ry

     total magnetization       =     2.00 Bohr mag/cell
     absolute magnetization    =     2.30 Bohr mag/cell

     iteration #  4     ecut=    70.00 Ry     beta=0.70
     Davidson diagonalization with overlap
     ethr =  6.79E-04,  avg # of iterations =  5.0

     total cpu time spent up to now is       13.5 secs

     total energy              =    -724.69665956 Ry
     Harris-Foulkes estimate   =    -724.71219257 Ry
     estimated scf accuracy    <       0.13785504 Ry

     total magnetization       =     2.00 Bohr mag/cell
     absolute magnetization    =     2.32 Bohr mag/cell

     iteration #  5     ecut=    70.00 Ry     beta=0.70
     Davidson diagonalization with overlap
     ethr =  5.43E-05,  avg # of iterations = 10.2

     total cpu time spent up to now is       18.4 secs

     total energy              =    -724.74766481 Ry
     Harris-Foulkes estimate   =    -724.72536202 Ry
     estimated scf accuracy    <       0.02352082 Ry

     total magnetization       =     2.00 Bohr mag/cell
     absolute magnetization    =     2.25 Bohr mag/cell

     iteration #  6     ecut=    70.00 Ry     beta=0.70
     Davidson diagonalization with overlap
     ethr =  9.26E-06,  avg # of iterations =  8.0

     total cpu time spent up to now is       23.1 secs

     total energy              =    -724.75558515 Ry
     Harris-Foulkes estimate   =    -724.75545123 Ry
     estimated scf accuracy    <       0.00745740 Ry

     total magnetization       =     2.00 Bohr mag/cell
     absolute magnetization    =     2.20 Bohr mag/cell

     iteration #  7     ecut=    70.00 Ry     beta=0.70
     Davidson diagonalization with overlap
     ethr =  2.94E-06,  avg # of iterations =  9.8

     total cpu time spent up to now is       28.3 secs

     total energy              =    -724.75746214 Ry
     Harris-Foulkes estimate   =    -724.75840599 Ry
     estimated scf accuracy    <       0.00251527 Ry

     total magnetization       =     2.00 Bohr mag/cell
     absolute magnetization    =     2.18 Bohr mag/cell

     iteration #  8     ecut=    70.00 Ry     beta=0.70
     Davidson diagonalization with overlap
     ethr =  9.90E-07,  avg # of iterations =  8.5

     total cpu time spent up to now is       32.6 secs

     total energy              =    -724.75824757 Ry
     Harris-Foulkes estimate   =    -724.75836874 Ry
     estimated scf accuracy    <       0.00072022 Ry

     total magnetization       =     2.00 Bohr mag/cell
     absolute magnetization    =     2.17 Bohr mag/cell

     iteration #  9     ecut=    70.00 Ry     beta=0.70
     Davidson diagonalization with overlap
     ethr =  2.84E-07,  avg # of iterations =  3.5

     total cpu time spent up to now is       34.7 secs

     total energy              =    -724.75846779 Ry
     Harris-Foulkes estimate   =    -724.75845406 Ry
     estimated scf accuracy    <       0.00008829 Ry

     total magnetization       =     2.00 Bohr mag/cell
     absolute magnetization    =     2.17 Bohr mag/cell

     iteration # 10     ecut=    70.00 Ry     beta=0.70
     Davidson diagonalization with overlap
     ethr =  3.48E-08,  avg # of iterations =  4.0

     total cpu time spent up to now is       37.4 secs

     total energy              =    -724.75852607 Ry
     Harris-Foulkes estimate   =    -724.75852278 Ry
     estimated scf accuracy    <       0.00001946 Ry

     total magnetization       =     2.00 Bohr mag/cell
     absolute magnetization    =     2.18 Bohr mag/cell

     iteration # 11     ecut=    70.00 Ry     beta=0.70
     Davidson diagonalization with overlap
     ethr =  7.66E-09,  avg # of iterations =  4.0

     total cpu time spent up to now is       39.8 secs

     total energy              =    -724.75853329 Ry
     Harris-Foulkes estimate   =    -724.75853248 Ry
     estimated scf accuracy    <       0.00000288 Ry

     total magnetization       =     2.00 Bohr mag/cell
     absolute magnetization    =     2.18 Bohr mag/cell

     iteration # 12     ecut=    70.00 Ry     beta=0.70
     Davidson diagonalization with overlap
     ethr =  1.13E-09,  avg # of iterations =  3.5
 
     Magnetic moment per site:
     atom:    1    charge:    2.0263    magn:    0.0000    constr:    0.0000
     atom:    2    charge:    2.0267    magn:   -0.0009    constr:    0.0000
     atom:    3    charge:    2.0244    magn:   -0.0011    constr:    0.0000
     atom:    4    charge:    2.0265    magn:   -0.0013    constr:    0.0000
     atom:    5    charge:    2.0267    magn:   -0.0009    constr:    0.0000
     atom:    6    charge:    1.9815    magn:    0.0031    constr:    0.0000
     atom:    7    charge:    2.0176    magn:    0.0013    constr:    0.0000
     atom:    8    charge:    2.0255    magn:   -0.0011    constr:    0.0000
     atom:    9    charge:    2.0244    magn:   -0.0011    constr:    0.0000
     atom:   10    charge:    2.0176    magn:    0.0013    constr:    0.0000
     atom:   11    charge:    2.0244    magn:   -0.0011    constr:    0.0000
     atom:   12    charge:    2.0176    magn:    0.0013    constr:    0.0000
     atom:   13    charge:    2.0265    magn:   -0.0013    constr:    0.0000
     atom:   14    charge:    2.0255    magn:   -0.0011    constr:    0.0000
     atom:   15    charge:    2.0176    magn:    0.0013    constr:    0.0000
     atom:   16    charge:    2.0184    magn:   -0.0078    constr:    0.0000
     atom:   17    charge:    2.0267    magn:   -0.0009    constr:    0.0000
     atom:   18    charge:    1.9815    magn:    0.0031    constr:    0.0000
     atom:   19    charge:    2.0176    magn:    0.0013    constr:    0.0000
     atom:   20    charge:    2.0255    magn:   -0.0011    constr:    0.0000
     atom:   21    charge:    1.9815    magn:    0.0031    constr:    0.0000
     atom:   22    charge:    2.0184    magn:   -0.0078    constr:    0.0000
     atom:   23    charge:    2.0277    magn:    0.0072    constr:    0.0000
     atom:   24    charge:    2.0176    magn:    0.0013    constr:    0.0000
     atom:   25    charge:    2.0184    magn:   -0.0078    constr:    0.0000
     atom:   26    charge:    2.0265    magn:   -0.0013    constr:    0.0000
     atom:   27    charge:    2.0255    magn:   -0.0011    constr:    0.0000
     atom:   28    charge:    2.0255    magn:   -0.0011    constr:    0.0000
     atom:   29    charge:    2.0277    magn:    0.0072    constr:    0.0000
     atom:   30    charge:    2.0255    magn:   -0.0011    constr:    0.0000
     atom:   31    charge:    2.0277    magn:    0.0072    constr:    0.0000
     atom:   32    charge:    2.0263    magn:    0.0024    constr:    0.0000
     atom:   33    charge:    2.0294    magn:    0.0013    constr:    0.0000
     atom:   34    charge:    2.0254    magn:    0.0042    constr:    0.0000
     atom:   35    charge:    2.0264    magn:    0.0169    constr:    0.0000
     atom:   36    charge:    2.0251    magn:    0.0046    constr:    0.0000
     atom:   37    charge:    2.0254    magn:    0.0042    constr:    0.0000
     atom:   38    charge:    2.0251    magn:    0.0046    constr:    0.0000
     atom:   39    charge:    2.0254    magn:    0.0042    constr:    0.0000
     atom:   40    charge:    2.0242    magn:    0.0060    constr:    0.0000
     atom:   41    charge:    2.0264    magn:    0.0169    constr:    0.0000
     atom:   42    charge:    2.0254    magn:    0.0042    constr:    0.0000
     atom:   43    charge:    1.9542    magn:    0.2816    constr:    0.0000
     atom:   44    charge:    2.0261    magn:    0.0028    constr:    0.0000
     atom:   45    charge:    2.0263    magn:    0.0024    constr:    0.0000
     atom:   46    charge:    2.0251    magn:    0.0046    constr:    0.0000
     atom:   47    charge:    2.0242    magn:    0.0060    constr:    0.0000
     atom:   48    charge:    2.0294    magn:    0.0013    constr:    0.0000
     atom:   49    charge:    1.9542    magn:    0.2816    constr:    0.0000
     atom:   50    charge:    2.0257    magn:    0.0139    constr:    0.0000
     atom:   51    charge:    2.0254    magn:    0.0042    constr:    0.0000
     atom:   52    charge:    1.9542    magn:    0.2816    constr:    0.0000
     atom:   53    charge:    2.0242    magn:    0.0060    constr:    0.0000
     atom:   54    charge:    2.0264    magn:    0.0169    constr:    0.0000
     atom:   55    charge:    2.0264    magn:    0.0169    constr:    0.0000
     atom:   56    charge:    2.0257    magn:    0.0139    constr:    0.0000
     atom:   57    charge:    2.0264    magn:    0.0169    constr:    0.0000
     atom:   58    charge:    2.0257    magn:    0.0139    constr:    0.0000
     atom:   59    charge:    2.0263    magn:    0.0024    constr:    0.0000
     atom:   60    charge:    2.0294    magn:    0.0013    constr:    0.0000
     atom:   61    charge:    2.0254    magn:    0.0042    constr:    0.0000
     atom:   62    charge:    2.0264    magn:    0.0169    constr:    0.0000
     atom:   63    charge:    3.0674    magn:    0.0011    constr:    0.0000

     total cpu time spent up to now is       42.4 secs

     End of self-consistent calculation

 ------ SPIN UP ------------


          k = 0.2500 0.2500 0.2500 ( 24252 PWs)   bands (ev):

    -8.0822  -7.1264  -6.9261  -6.7549  -6.0023  -5.7929  -5.5581  -4.9647
    -4.7003  -4.6331  -4.5228  -3.9210  -3.7084  -3.6477  -3.6056  -3.4885
    -3.2833  -2.9248  -2.6931  -2.3669  -1.9890  -1.7776  -1.6563  -1.4764
    -1.4557  -1.2731  -0.9272  -0.8252  -0.7437  -0.7255  -0.5521   0.1069
     0.4631   0.5156   0.6887   1.2831   1.3837   1.6330   1.7339   1.7812
     1.7970   1.8680   1.9417   2.0550   2.2340   2.3688   2.4193   2.9634
     3.0314   3.0661   3.1251   3.2766   3.3972   4.1882   4.4783   4.4966
     4.5991   4.6395   4.6518   4.7942   5.1653   5.1669   5.2636   5.2890
     5.3904   5.3914   5.4909   5.5430   5.6946   5.7086   5.7919   6.3813
     6.4572   6.4866   6.5526   6.5709   6.5841   6.6382   6.6481   6.7314
     6.8806   6.9064   6.9557   7.0256   7.3540   7.3892   7.4619   7.7055
     7.7933   7.8225   7.9434   7.9661   8.0644   8.2852   8.3223   8.4296
     8.5591   8.5787   8.6741   8.6955   8.7198   8.7497   8.7999   8.8025
     8.8670   8.8783   8.9964   9.0967   9.2023   9.4388   9.7275   9.8434
     9.8538  10.0473  10.2320  10.2542  10.2980  10.7488  10.7659  10.9076
    10.9268  11.0668  11.0968  11.9626  11.9991  13.4700  14.1745  14.5545
    17.7285  17.9907  18.0142  18.1782  18.2481  18.3385  18.7422  18.8286
    19.0060  19.3623  19.4554  19.6336  19.8544  19.8693  19.8843  19.9649
    20.0562  20.1498  20.3150  20.4157  20.4768  20.5320  20.5734  20.5967

     occupation numbers 
     1.0000   1.0000   1.0000   1.0000   1.0000   1.0000   1.0000   1.0000
     1.0000   1.0000   1.0000   1.0000   1.0000   1.0000   1.0000   1.0000
     1.0000   1.0000   1.0000   1.0000   1.0000   1.0000   1.0000   1.0000
     1.0000   1.0000   1.0000   1.0000   1.0000   1.0000   1.0000   1.0000
     1.0000   1.0000   1.0000   1.0000   1.0000   1.0000   1.0000   1.0000
     1.0000   1.0000   1.0000   1.0000   1.0000   1.0000   1.0000   1.0000
     1.0000   1.0000   1.0000   1.0000   1.0000   1.0000   1.0000   1.0000
     1.0000   1.0000   1.0000   1.0000   1.0000   1.0000   1.0000   1.0000
     1.0000   1.0000   1.0000   1.0000   1.0000   1.0000   1.0000   1.0000
     1.0000   1.0000   1.0000   1.0000   1.0000   1.0000   1.0000   1.0000
     1.0000   1.0000   1.0000   1.0000   1.0000   1.0000   1.0000   1.0000
     1.0000   1.0000   1.0000   1.0000   1.0000   1.0000   1.0000   1.0000
     1.0000   1.0000   1.0000   1.0000   1.0000   1.0000   1.0000   1.0000
     1.0000   1.0000   1.0000   1.0000   1.0000   1.0000   1.0000   1.0000
     1.0000   1.0000   1.0000   1.0000   1.0000   1.0000   1.0000   1.0000
     1.0000   1.0000   1.0000   1.0000   1.0000   1.0000   1.0000   1.0000
     0.0000   0.0000   0.0000   0.0000   0.0000   0.0000   0.0000   0.0000
     0.0000   0.0000   0.0000   0.0000   0.0000   0.0000   0.0000   0.0000
     0.0000   0.0000   0.0000   0.0000   0.0000   0.0000   0.0000   0.0000

          k =-0.2500 0.2500 0.2500 ( 24252 PWs)   bands (ev):

    -8.0913  -6.9612  -6.9256  -6.9256  -5.8781  -5.7961  -5.7961  -4.8469
    -4.6947  -4.6947  -4.4011  -3.6732  -3.6558  -3.6558  -3.5885  -3.5281
    -3.5281  -2.9442  -2.6783  -2.6783  -1.7844  -1.7844  -1.7321  -1.4615
    -1.4615  -1.3040  -0.7875  -0.7875  -0.7762  -0.5556  -0.5556  -0.1531
     0.5194   0.5194   0.7733   1.3890   1.3890   1.4678   1.7794   1.7794
     1.7948   1.9029   1.9029   1.9991   2.3713   2.4115   2.4115   2.6624
     3.0999   3.0999   3.1377   3.3355   3.3355   4.1795   4.5402   4.5479
     4.5479   4.6669   4.6669   4.7901   5.1308   5.2397   5.2397   5.3248
     5.3248   5.3875   5.4619   5.4619   5.7043   5.7043   5.7635   6.3703
     6.5296   6.5296   6.5370   6.6120   6.6120   6.6812   6.6812   6.6980
     6.8405   6.8405   6.9315   7.0787   7.2521   7.2521   7.3829   7.7962
     7.8208   7.8208   7.9023   7.9023   8.0956   8.4109   8.4109   8.5293
     8.5690   8.5690   8.7071   8.7071   8.7187   8.7280   8.7766   8.7766
     8.8556   8.9433   8.9433   9.2424   9.2424   9.4947   9.6727   9.6727
     9.7568  10.0911  10.2909  10.2909  10.2978  10.7306  10.7306  10.9636
    10.9636  11.0905  11.1143  11.9450  11.9450  12.9847  14.5691  14.5691
    17.7612  17.9790  17.9790  18.1029  18.2398  18.2398  18.7637  18.8127
    18.8127  19.4196  19.4196  19.7355  19.8974  19.8974  20.0292  20.0292
    20.0495  20.1532  20.4433  20.4568  20.4568  20.4697  20.5883  20.5883

     occupation numbers 
     1.0000   1.0000   1.0000   1.0000   1.0000   1.0000   1.0000   1.0000
     1.0000   1.0000   1.0000   1.0000   1.0000   1.0000   1.0000   1.0000
     1.0000   1.0000   1.0000   1.0000   1.0000   1.0000   1.0000   1.0000
     1.0000   1.0000   1.0000   1.0000   1.0000   1.0000   1.0000   1.0000
     1.0000   1.0000   1.0000   1.0000   1.0000   1.0000   1.0000   1.0000
     1.0000   1.0000   1.0000   1.0000   1.0000   1.0000   1.0000   1.0000
     1.0000   1.0000   1.0000   1.0000   1.0000   1.0000   1.0000   1.0000
     1.0000   1.0000   1.0000   1.0000   1.0000   1.0000   1.0000   1.0000
     1.0000   1.0000   1.0000   1.0000   1.0000   1.0000   1.0000   1.0000
     1.0000   1.0000   1.0000   1.0000   1.0000   1.0000   1.0000   1.0000
     1.0000   1.0000   1.0000   1.0000   1.0000   1.0000   1.0000   1.0000
     1.0000   1.0000   1.0000   1.0000   1.0000   1.0000   1.0000   1.0000
     1.0000   1.0000   1.0000   1.0000   1.0000   1.0000   1.0000   1.0000
     1.0000   1.0000   1.0000   1.0000   1.0000   1.0000   1.0000   1.0000
     1.0000   1.0000   1.0000   1.0000   1.0000   1.0000   1.0000   1.0000
     1.0000   1.0000   1.0000   1.0000   1.0000   1.0000   1.0000   1.0000
     0.0000   0.0000   0.0000   0.0000   0.0000   0.0000   0.0000   0.0000
     0.0000   0.0000   0.0000   0.0000   0.0000   0.0000   0.0000   0.0000
     0.0000   0.0000   0.0000   0.0000   0.0000   0.0000   0.0000   0.0000

 ------ SPIN DOWN ----------


          k = 0.2500 0.2500 0.2500 ( 24252 PWs)   bands (ev):

    -8.0630  -7.1123  -6.9035  -6.7286  -5.9863  -5.7681  -5.5188  -4.9478
    -4.6801  -4.6023  -4.5031  -3.8806  -3.6914  -3.6335  -3.5939  -3.4439
    -3.2519  -2.9058  -2.6522  -2.2974  -1.9691  -1.7516  -1.6386  -1.4367
    -1.4297  -1.2296  -0.8638  -0.8085  -0.7279  -0.7109  -0.4726   0.1903
     0.4900   0.5475   0.7484   1.3067   1.4120   1.6613   1.7491   1.8106
     1.8158   1.9086   1.9776   2.0997   2.2609   2.4185   2.4775   3.0211
     3.0828   3.0879   3.1495   3.3069   3.4783   4.2839   4.4915   4.5188
     4.6260   4.6612   4.6684   4.8474   5.1855   5.1990   5.2893   5.3103
     5.4107   5.4121   5.5381   5.6019   5.7239   5.7452   5.8556   6.4211
     6.4683   6.5211   6.5641   6.5896   6.6019   6.6608   6.6667   6.7562
     6.9246   6.9395   7.0205   7.0516   7.4167   7.4354   7.5463   7.7288
     7.8238   7.8491   7.9782   7.9986   8.0847   8.3354   8.3575   8.4782
     8.5841   8.6003   8.6889   8.7101   8.7374   8.7649   8.8288   8.8647
     8.8931   8.9143   9.0509   9.1250   9.2563   9.4755   9.8475   9.9026
    10.0416  10.0828  10.2964  10.3080  10.3396  10.8038  10.8057  10.9532
    10.9583  11.1277  11.3601  12.0713  12.0845  14.1073  15.6923  16.1240
    17.7530  18.0162  18.0393  18.2073  18.2800  18.3910  18.7632  18.8517
    19.0578  19.3947  19.4981  19.6733  19.8775  19.9043  19.9147  19.9909
    20.1042  20.2084  20.3755  20.4303  20.4989  20.5466  20.5975  20.6235

     occupation numbers 
     1.0000   1.0000   1.0000   1.0000   1.0000   1.0000   1.0000   1.0000
     1.0000   1.0000   1.0000   1.0000   1.0000   1.0000   1.0000   1.0000
     1.0000   1.0000   1.0000   1.0000   1.0000   1.0000   1.0000   1.0000
     1.0000   1.0000   1.0000   1.0000   1.0000   1.0000   1.0000   1.0000
     1.0000   1.0000   1.0000   1.0000   1.0000   1.0000   1.0000   1.0000
     1.0000   1.0000   1.0000   1.0000   1.0000   1.0000   1.0000   1.0000
     1.0000   1.0000   1.0000   1.0000   1.0000   1.0000   1.0000   1.0000
     1.0000   1.0000   1.0000   1.0000   1.0000   1.0000   1.0000   1.0000
     1.0000   1.0000   1.0000   1.0000   1.0000   1.0000   1.0000   1.0000
     1.0000   1.0000   1.0000   1.0000   1.0000   1.0000   1.0000   1.0000
     1.0000   1.0000   1.0000   1.0000   1.0000   1.0000   1.0000   1.0000
     1.0000   1.0000   1.0000   1.0000   1.0000   1.0000   1.0000   1.0000
     1.0000   1.0000   1.0000   1.0000   1.0000   1.0000   1.0000   1.0000
     1.0000   1.0000   1.0000   1.0000   1.0000   1.0000   1.0000   1.0000
     1.0000   1.0000   1.0000   1.0000   1.0000   1.0000   1.0000   1.0000
     1.0000   1.0000   1.0000   1.0000   1.0000   1.0000   0.0000   0.0000
     0.0000   0.0000   0.0000   0.0000   0.0000   0.0000   0.0000   0.0000
     0.0000   0.0000   0.0000   0.0000   0.0000   0.0000   0.0000   0.0000
     0.0000   0.0000   0.0000   0.0000   0.0000   0.0000   0.0000   0.0000

          k =-0.2500 0.2500 0.2500 ( 24252 PWs)   bands (ev):

    -8.0730  -6.9421  -6.9029  -6.9029  -5.8595  -5.7723  -5.7723  -4.8221
    -4.6721  -4.6721  -4.3613  -3.6526  -3.6415  -3.6415  -3.5486  -3.4919
    -3.4919  -2.9258  -2.6347  -2.6347  -1.7566  -1.7566  -1.7020  -1.4370
    -1.4370  -1.2729  -0.7767  -0.7767  -0.7528  -0.4780  -0.4780  -0.0668
     0.5531   0.5531   0.8524   1.4125   1.4125   1.5009   1.7992   1.7992
     1.8107   1.9328   1.9328   2.0284   2.4043   2.4706   2.4706   2.7125
     3.1267   3.1267   3.1565   3.4105   3.4105   4.2620   4.5575   4.5783
     4.5783   4.6893   4.6893   4.8578   5.1511   5.2604   5.2604   5.3521
     5.3521   5.4246   5.4975   5.4975   5.7327   5.7327   5.8023   6.4270
     6.5459   6.5459   6.5483   6.6356   6.6356   6.7130   6.7242   6.7242
     6.8677   6.8677   6.9842   7.1120   7.3000   7.3000   7.4650   7.8213
     7.8546   7.8546   7.9317   7.9317   8.1153   8.4560   8.4560   8.5921
     8.5921   8.6025   8.7206   8.7206   8.7324   8.7461   8.7957   8.7957
     8.8812   8.9801   8.9801   9.3123   9.3123   9.5372   9.7349   9.7349
     9.9220  10.1256  10.3253  10.3253  10.4623  10.7834  10.7834  10.9985
    10.9985  11.1468  11.4603  12.0209  12.0209  13.6174  16.1262  16.1262
    17.7981  18.0082  18.0082  18.1262  18.2776  18.2776  18.7910  18.8351
    18.8351  19.4592  19.4592  19.7659  19.9320  19.9320  20.0766  20.0766
    20.0837  20.2013  20.4810  20.4810  20.4851  20.4922  20.6138  20.6138

     occupation numbers 
     1.0000   1.0000   1.0000   1.0000   1.0000   1.0000   1.0000   1.0000
     1.0000   1.0000   1.0000   1.0000   1.0000   1.0000   1.0000   1.0000
     1.0000   1.0000   1.0000   1.0000   1.0000   1.0000   1.0000   1.0000
     1.0000   1.0000   1.0000   1.0000   1.0000   1.0000   1.0000   1.0000
     1.0000   1.0000   1.0000   1.0000   1.0000   1.0000   1.0000   1.0000
     1.0000   1.0000   1.0000   1.0000   1.0000   1.0000   1.0000   1.0000
     1.0000   1.0000   1.0000   1.0000   1.0000   1.0000   1.0000   1.0000
     1.0000   1.0000   1.0000   1.0000   1.0000   1.0000   1.0000   1.0000
     1.0000   1.0000   1.0000   1.0000   1.0000   1.0000   1.0000   1.0000
     1.0000   1.0000   1.0000   1.0000   1.0000   1.0000   1.0000   1.0000
     1.0000   1.0000   1.0000   1.0000   1.0000   1.0000   1.0000   1.0000
     1.0000   1.0000   1.0000   1.0000   1.0000   1.0000   1.0000   1.0000
     1.0000   1.0000   1.0000   1.0000   1.0000   1.0000   1.0000   1.0000
     1.0000   1.0000   1.0000   1.0000   1.0000   1.0000   1.0000   1.0000
     1.0000   1.0000   1.0000   1.0000   1.0000   1.0000   1.0000   1.0000
     1.0000   1.0000   1.0000   1.0000   1.0000   1.0000   0.0000   0.0000
     0.0000   0.0000   0.0000   0.0000   0.0000   0.0000   0.0000   0.0000
     0.0000   0.0000   0.0000   0.0000   0.0000   0.0000   0.0000   0.0000
     0.0000   0.0000   0.0000   0.0000   0.0000   0.0000   0.0000   0.0000

     the Fermi energy is    15.2565 ev

!    total energy              =    -724.75853489 Ry
     Harris-Foulkes estimate   =    -724.75853462 Ry
     estimated scf accuracy    <       0.00000036 Ry

     The total energy is the sum of the following terms:

     one-electron contribution =     238.21127274 Ry
     hartree contribution      =      66.76129289 Ry
     xc contribution           =    -226.18121909 Ry
     ewald contribution        =    -803.54988144 Ry
     smearing contrib. (-TS)   =       0.00000000 Ry

     total magnetization       =     2.00 Bohr mag/cell
     absolute magnetization    =     2.18 Bohr mag/cell

     convergence has been achieved in  12 iterations

     Forces acting on atoms (cartesian axes, Ry/au):

     atom    1 type  1   force =     0.00062713   -0.00062713   -0.00062713
     atom    2 type  1   force =    -0.00424336    0.00424336    0.00259845
     atom    3 type  1   force =     0.00013051   -0.00013051   -0.00254551
     atom    4 type  1   force =     0.00227969   -0.00227969    0.00302802
     atom    5 type  1   force =    -0.00259845    0.00424336    0.00424336
     atom    6 type  1   force =    -0.01786630   -0.03704950    0.01786630
     atom    7 type  1   force =    -0.00565700   -0.02849776    0.03144997
     atom    8 type  1   force =     0.00432926   -0.00226143   -0.00302770
     atom    9 type  1   force =     0.00254551   -0.00013051   -0.00013051
     atom   10 type  1   force =    -0.03144997   -0.02849776    0.00565700
     atom   11 type  1   force =     0.00013051   -0.00254551   -0.00013051
     atom   12 type  1   force =     0.02849776    0.03144997    0.00565700
     atom   13 type  1   force =    -0.00302802   -0.00227969   -0.00227969
     atom   14 type  1   force =     0.00302770   -0.00226143   -0.00432926
     atom   15 type  1   force =    -0.00565700    0.03144997   -0.02849776
     atom   16 type  1   force =     0.02629420   -0.01409482   -0.02629420
     atom   17 type  1   force =    -0.00424336    0.00259845    0.00424336
     atom   18 type  1   force =     0.03704950    0.01786630    0.01786630
     atom   19 type  1   force =     0.02849776    0.00565700    0.03144997
     atom   20 type  1   force =     0.00226143   -0.00432926   -0.00302770
     atom   21 type  1   force =    -0.01786630    0.01786630   -0.03704950
     atom   22 type  1   force =     0.02629420   -0.02629420   -0.01409482
     atom   23 type  1   force =    -0.00102104    0.00102104    0.00109273
     atom   24 type  1   force =    -0.03144997    0.00565700   -0.02849776
     atom   25 type  1   force =     0.01409482   -0.02629420   -0.02629420
     atom   26 type  1   force =     0.00227969    0.00302802   -0.00227969
     atom   27 type  1   force =     0.00226143   -0.00302770   -0.00432926
     atom   28 type  1   force =     0.00302770   -0.00432926   -0.00226143
     atom   29 type  1   force =    -0.00109273    0.00102104    0.00102104
     atom   30 type  1   force =     0.00432926   -0.00302770   -0.00226143
     atom   31 type  1   force =    -0.00102104    0.00109273    0.00102104
     atom   32 type  1   force =     0.00005705    0.00077126    0.00077126
     atom   33 type  1   force =     0.00260599    0.00366965   -0.00260599
     atom   34 type  1   force =    -0.00827685   -0.00350326    0.00918741
     atom   35 type  1   force =     0.00231551    0.00344038   -0.00494208
     atom   36 type  1   force =     0.00097962   -0.00419483   -0.00419483
     atom   37 type  1   force =    -0.00918741   -0.00350326    0.00827685
     atom   38 type  1   force =     0.00419483   -0.00097962   -0.00419483
     atom   39 type  1   force =     0.00350326    0.00918741    0.00827685
     atom   40 type  1   force =     0.00139322    0.00333118    0.00333118
     atom   41 type  1   force =     0.00494208    0.00344038   -0.00231551
     atom   42 type  1   force =    -0.00827685    0.00918741   -0.00350326
     atom   43 type  1   force =    -0.06095656   -0.02869099    0.06095656
     atom   44 type  1   force =     0.00129908   -0.00129908   -0.00129908
     atom   45 type  1   force =    -0.00077126    0.00077126   -0.00005705
     atom   46 type  1   force =     0.00419483   -0.00419483   -0.00097962
     atom   47 type  1   force =    -0.00333118    0.00333118   -0.00139322
     atom   48 type  1   force =     0.00260599   -0.00260599    0.00366965
     atom   49 type  1   force =    -0.06095656    0.06095656   -0.02869099
     atom   50 type  1   force =    -0.00528017    0.00528017    0.00800586
     atom   51 type  1   force =    -0.00918741    0.00827685   -0.00350326
     atom   52 type  1   force =     0.02869099    0.06095656    0.06095656
     atom   53 type  1   force =    -0.00333118   -0.00139322    0.00333118
     atom   54 type  1   force =    -0.00344038   -0.00494208   -0.00231551
     atom   55 type  1   force =     0.00494208   -0.00231551    0.00344038
     atom   56 type  1   force =    -0.00800586    0.00528017    0.00528017
     atom   57 type  1   force =     0.00231551   -0.00494208    0.00344038
     atom   58 type  1   force =    -0.00528017    0.00800586    0.00528017
     atom   59 type  1   force =    -0.00077126   -0.00005705    0.00077126
     atom   60 type  1   force =    -0.00366965   -0.00260599   -0.00260599
     atom   61 type  1   force =     0.00350326    0.00827685    0.00918741
     atom   62 type  1   force =    -0.00344038   -0.00231551   -0.00494208
     atom   63 type  2   force =     0.06585635   -0.06585635   -0.06585635
     The non-local contrib.  to forces
     atom    1 type  1   force =    -0.00350271    0.00350271    0.00350271
     atom    2 type  1   force =     0.01596077   -0.01596077    0.01168320
     atom    3 type  1   force =     0.00327525   -0.00327525    0.01678247
     atom    4 type  1   force =    -0.01691354    0.01691354    0.00543393
     atom    5 type  1   force =    -0.01168320   -0.01596077   -0.01596077
     atom    6 type  1   force =    -0.13094001   -0.14085348    0.13094001
     atom    7 type  1   force =     0.05911499    0.02941508   -0.04400888
     atom    8 type  1   force =    -0.00205310    0.01580177   -0.00462733
     atom    9 type  1   force =    -0.01678247   -0.00327525   -0.00327525
     atom   10 type  1   force =     0.04400888    0.02941508   -0.05911499
     atom   11 type  1   force =     0.00327525    0.01678247   -0.00327525
     atom   12 type  1   force =    -0.02941508   -0.04400888   -0.05911499
     atom   13 type  1   force =    -0.00543393    0.01691354    0.01691354
     atom   14 type  1   force =     0.00462733    0.01580177    0.00205310
     atom   15 type  1   force =     0.05911499   -0.04400888    0.02941508
     atom   16 type  1   force =    -0.05116776    0.05348561    0.05116776
     atom   17 type  1   force =     0.01596077    0.01168320   -0.01596077
     atom   18 type  1   force =     0.14085348    0.13094001    0.13094001
     atom   19 type  1   force =    -0.02941508   -0.05911499   -0.04400888
     atom   20 type  1   force =    -0.01580177    0.00205310   -0.00462733
     atom   21 type  1   force =    -0.13094001    0.13094001   -0.14085348
     atom   22 type  1   force =    -0.05116776    0.05116776    0.05348561
     atom   23 type  1   force =    -0.00999082    0.00999082   -0.00621886
     atom   24 type  1   force =     0.04400888   -0.05911499    0.02941508
     atom   25 type  1   force =    -0.05348561    0.05116776    0.05116776
     atom   26 type  1   force =    -0.01691354    0.00543393    0.01691354
     atom   27 type  1   force =    -0.01580177   -0.00462733    0.00205310
     atom   28 type  1   force =     0.00462733    0.00205310    0.01580177
     atom   29 type  1   force =     0.00621886    0.00999082    0.00999082
     atom   30 type  1   force =    -0.00205310   -0.00462733    0.01580177
     atom   31 type  1   force =    -0.00999082   -0.00621886    0.00999082
     atom   32 type  1   force =    -0.00480989   -0.00578418   -0.00578418
     atom   33 type  1   force =     0.01481762   -0.02354218   -0.01481762
     atom   34 type  1   force =     0.02784235   -0.02196282   -0.01692634
     atom   35 type  1   force =    -0.03023969    0.02734364   -0.02112036
     atom   36 type  1   force =    -0.05444207   -0.00663891   -0.00663891
     atom   37 type  1   force =     0.01692634   -0.02196282   -0.02784235
     atom   38 type  1   force =     0.00663891    0.05444207   -0.00663891
     atom   39 type  1   force =     0.02196282   -0.01692634   -0.02784235
     atom   40 type  1   force =    -0.05638650    0.00240484    0.00240484
     atom   41 type  1   force =     0.02112036    0.02734364    0.03023969
     atom   42 type  1   force =     0.02784235   -0.01692634   -0.02196282
     atom   43 type  1   force =    -0.33997232   -0.32314786    0.33997232
     atom   44 type  1   force =    -0.00838514    0.00838514    0.00838514
     atom   45 type  1   force =     0.00578418   -0.00578418    0.00480989
     atom   46 type  1   force =     0.00663891   -0.00663891    0.05444207
     atom   47 type  1   force =    -0.00240484    0.00240484    0.05638650
     atom   48 type  1   force =     0.01481762   -0.01481762   -0.02354218
     atom   49 type  1   force =    -0.33997232    0.33997232   -0.32314786
     atom   50 type  1   force =    -0.03198081    0.03198081   -0.04268355
     atom   51 type  1   force =     0.01692634   -0.02784235   -0.02196282
     atom   52 type  1   force =     0.32314786    0.33997232    0.33997232
     atom   53 type  1   force =    -0.00240484    0.05638650    0.00240484
     atom   54 type  1   force =    -0.02734364   -0.02112036    0.03023969
     atom   55 type  1   force =     0.02112036    0.03023969    0.02734364
     atom   56 type  1   force =     0.04268355    0.03198081    0.03198081
     atom   57 type  1   force =    -0.03023969   -0.02112036    0.02734364
     atom   58 type  1   force =    -0.03198081   -0.04268355    0.03198081
     atom   59 type  1   force =     0.00578418    0.00480989   -0.00578418
     atom   60 type  1   force =     0.02354218   -0.01481762   -0.01481762
     atom   61 type  1   force =     0.02196282   -0.02784235   -0.01692634
     atom   62 type  1   force =    -0.02734364    0.03023969   -0.02112036
     atom   63 type  2   force =     1.02083347   -1.02083347   -1.02083347
     The ionic contribution  to forces
     atom    1 type  1   force =     0.02794051   -0.02794074   -0.02793725
     atom    2 type  1   force =    -0.11807514    0.11807303   -0.14403896
     atom    3 type  1   force =    -0.06958921    0.06959062   -0.14403923
     atom    4 type  1   force =     0.15972395   -0.15972194   -0.02794077
     atom    5 type  1   force =     0.14403963    0.11807345    0.11807461
     atom    6 type  1   force =    -0.30992904    0.52078941    0.30992721
     atom    7 type  1   force =    -0.06958962   -0.68667704    0.76112950
     atom    8 type  1   force =     0.13564475   -0.05202125    0.15662864
     atom    9 type  1   force =     0.14404079    0.06958977    0.06958467
     atom   10 type  1   force =    -0.76113279   -0.68667570    0.06958939
     atom   11 type  1   force =    -0.06959129   -0.14404034    0.06959089
     atom   12 type  1   force =     0.68667921    0.76112688    0.06958688
     atom   13 type  1   force =     0.02794281   -0.15972215   -0.15972011
     atom   14 type  1   force =    -0.15662932   -0.05202106   -0.13564305
     atom   15 type  1   force =    -0.06958819    0.76113058   -0.68667947
     atom   16 type  1   force =     0.77870191    0.03103844   -0.77869792
     atom   17 type  1   force =    -0.11807586   -0.14404033    0.11807262
     atom   18 type  1   force =    -0.52078965    0.30992692    0.30992963
     atom   19 type  1   force =     0.68667968    0.06959022    0.76112855
     atom   20 type  1   force =     0.05202024   -0.13564361    0.15662837
     atom   21 type  1   force =    -0.30993155    0.30992994    0.52078581
     atom   22 type  1   force =     0.77869847   -0.77869733    0.03103428
     atom   23 type  1   force =     0.05202453   -0.05202056    0.03103732
     atom   24 type  1   force =    -0.76113148    0.06958918   -0.68667581
     atom   25 type  1   force =    -0.03103573   -0.77869776   -0.77869541
     atom   26 type  1   force =     0.15972602   -0.02794460   -0.15972640
     atom   27 type  1   force =     0.05201950    0.15662776   -0.13564047
     atom   28 type  1   force =    -0.15662961   -0.13564242   -0.05202132
     atom   29 type  1   force =    -0.03103732   -0.05202013   -0.05201796
     atom   30 type  1   force =     0.13564609    0.15662613   -0.05201806
     atom   31 type  1   force =     0.05202220    0.03103603   -0.05201797
     atom   32 type  1   force =     0.11176264    0.06484581    0.06484693
     atom   33 type  1   force =    -0.00040348    0.12414642    0.00040318
     atom   34 type  1   force =    -0.27836080   -0.07068224    0.36848014
     atom   35 type  1   force =     0.07723037   -0.20808049    0.16116514
     atom   36 type  1   force =     0.57616196    0.27836063    0.27836131
     atom   37 type  1   force =    -0.36848022   -0.07068246    0.27835905
     atom   38 type  1   force =    -0.27836157   -0.57616050    0.27836048
     atom   39 type  1   force =     0.07068088    0.36848018    0.27836115
     atom   40 type  1   force =     0.57616384   -0.23144384   -0.23144400
     atom   41 type  1   force =    -0.16116608   -0.20807971   -0.07722992
     atom   42 type  1   force =    -0.27836382    0.36847894   -0.07068229
     atom   43 type  1   force =     1.87548303    2.08316245   -1.87548136
     atom   44 type  1   force =     0.11176314   -0.11176509   -0.11176378
     atom   45 type  1   force =    -0.06484851    0.06484627   -0.11176279
     atom   46 type  1   force =    -0.27836091    0.27836239   -0.57616147
     atom   47 type  1   force =     0.23144592   -0.23144331   -0.57616277
     atom   48 type  1   force =    -0.00040423    0.00040338    0.12414404
     atom   49 type  1   force =     1.87548024   -1.87548110    2.08316040
     atom   50 type  1   force =     0.20808454   -0.20808080    0.12414630
     atom   51 type  1   force =    -0.36848313    0.27836059   -0.07068189
     atom   52 type  1   force =    -2.08316330   -1.87548109   -1.87548205
     atom   53 type  1   force =     0.23144544   -0.57615730   -0.23144491
     atom   54 type  1   force =     0.20808325    0.16116156   -0.07723372
     atom   55 type  1   force =    -0.16116750   -0.07722791   -0.20808205
     atom   56 type  1   force =    -0.12414630   -0.20808234   -0.20808159
     atom   57 type  1   force =     0.07723056    0.16116410   -0.20807858
     atom   58 type  1   force =     0.20808048    0.12414594   -0.20808091
     atom   59 type  1   force =    -0.06484834   -0.11176138    0.06484670
     atom   60 type  1   force =    -0.12414638    0.00040011    0.00040258
     atom   61 type  1   force =     0.07068006    0.27836230    0.36848064
     atom   62 type  1   force =     0.20808289   -0.07723102    0.16116595
     atom   63 type  2   force =    -2.60394916    2.60394810    2.60395190
     The local contribution  to forces
     atom    1 type  1   force =    -0.02375958    0.02375958    0.02375958
     atom    2 type  1   force =     0.09770062   -0.09770229    0.13485996
     atom    3 type  1   force =     0.06644629   -0.06644629    0.12455780
     atom    4 type  1   force =    -0.14034761    0.14034926    0.02544085
     atom    5 type  1   force =    -0.13485996   -0.09770229   -0.09770397
     atom    6 type  1   force =     0.42311206   -0.41692548   -0.42311513
     atom    7 type  1   force =     0.00482059    0.62887177   -0.68568847
     atom    8 type  1   force =    -0.12908481    0.03387912   -0.15490920
     atom    9 type  1   force =    -0.12455777   -0.06644626   -0.06644955
     atom   10 type  1   force =     0.68568665    0.62887157   -0.00482373
     atom   11 type  1   force =     0.06644629    0.12455780   -0.06644629
     atom   12 type  1   force =    -0.62887164   -0.68568750   -0.00482371
     atom   13 type  1   force =    -0.02544084    0.14034927    0.14034927
     atom   14 type  1   force =     0.15490755    0.03387912    0.12908644
     atom   15 type  1   force =     0.00482069   -0.68568644    0.62886823
     atom   16 type  1   force =    -0.70126369   -0.09851145    0.70126211
     atom   17 type  1   force =     0.09770062    0.13485996   -0.09770396
     atom   18 type  1   force =     0.41692552   -0.42311527   -0.42311374
     atom   19 type  1   force =    -0.62887021   -0.00482059   -0.68569008
     atom   20 type  1   force =    -0.03387913    0.12908648   -0.15491089
     atom   21 type  1   force =     0.42311194   -0.42311268   -0.41692837
     atom   22 type  1   force =    -0.70126414    0.70126573   -0.09851617
     atom   23 type  1   force =    -0.04301281    0.04301281   -0.02369377
     atom   24 type  1   force =     0.68568672   -0.00482062    0.62887163
     atom   25 type  1   force =     0.09851004    0.70126566    0.70126566
     atom   26 type  1   force =    -0.14034925    0.02544086    0.14034596
     atom   27 type  1   force =    -0.03387913   -0.15490922    0.12908646
     atom   28 type  1   force =     0.15490755    0.12908644    0.03387912
     atom   29 type  1   force =     0.02369377    0.04301281    0.04301281
     atom   30 type  1   force =    -0.12908481   -0.15490920    0.03387912
     atom   31 type  1   force =    -0.04301281   -0.02369377    0.04301281
     atom   32 type  1   force =    -0.10670478   -0.05821560   -0.05821646
     atom   33 type  1   force =    -0.01178399   -0.09671016    0.01178138
     atom   34 type  1   force =     0.24224153    0.08913458   -0.34245891
     atom   35 type  1   force =    -0.04453775    0.18411932   -0.14498327
     atom   36 type  1   force =    -0.52072290   -0.27585911   -0.27586075
     atom   37 type  1   force =     0.34245899    0.08913464   -0.24224487
     atom   38 type  1   force =     0.27585914    0.52072381   -0.27586078
     atom   39 type  1   force =    -0.08913620   -0.34245758   -0.24224153
     atom   40 type  1   force =    -0.51825920    0.23237858    0.23237539
     atom   41 type  1   force =     0.14497980    0.18411928    0.04453609
     atom   42 type  1   force =     0.24224153   -0.34245891    0.08913458
     atom   43 type  1   force =    -1.59656123   -1.78866051    1.59656000
     atom   44 type  1   force =    -0.10188232    0.10188066    0.10188066
     atom   45 type  1   force =     0.05821302   -0.05821388    0.10670222
     atom   46 type  1   force =     0.27585898   -0.27585898    0.52072016
     atom   47 type  1   force =    -0.23237688    0.23237526    0.51825642
     atom   48 type  1   force =    -0.01178395    0.01178353   -0.09671353
     atom   49 type  1   force =    -1.59656171    1.59656048   -1.78866223
     atom   50 type  1   force =    -0.18125894    0.18125981   -0.07326433
     atom   51 type  1   force =     0.34245527   -0.24224145    0.08913452
     atom   52 type  1   force =     1.78866098    1.59656283    1.59656041
     atom   53 type  1   force =    -0.23237711    0.51826372    0.23237550
     atom   54 type  1   force =    -0.18411843   -0.14498240    0.04453277
     atom   55 type  1   force =     0.14497975    0.04453939    0.18411584
     atom   56 type  1   force =     0.07326267    0.18125635    0.18125635
     atom   57 type  1   force =    -0.04453775   -0.14498239    0.18411931
     atom   58 type  1   force =    -0.18125980   -0.07326265    0.18125637
     atom   59 type  1   force =     0.05821305    0.10670561   -0.05821559
     atom   60 type  1   force =     0.09671016    0.01178144    0.01178055
     atom   61 type  1   force =    -0.08913622   -0.24224156   -0.34245894
     atom   62 type  1   force =    -0.18411757    0.04453607   -0.14498325
     atom   63 type  2   force =     1.64896819   -1.64896819   -1.64896819
     The core correction contribution to forces
     atom    1 type  1   force =     0.00000000    0.00000000    0.00000000
     atom    2 type  1   force =     0.00000000    0.00000000    0.00000000
     atom    3 type  1   force =     0.00000000    0.00000000    0.00000000
     atom    4 type  1   force =     0.00000000    0.00000000    0.00000000
     atom    5 type  1   force =     0.00000000    0.00000000    0.00000000
     atom    6 type  1   force =     0.00000000    0.00000000    0.00000000
     atom    7 type  1   force =     0.00000000    0.00000000    0.00000000
     atom    8 type  1   force =     0.00000000    0.00000000    0.00000000
     atom    9 type  1   force =     0.00000000    0.00000000    0.00000000
     atom   10 type  1   force =     0.00000000    0.00000000    0.00000000
     atom   11 type  1   force =     0.00000000    0.00000000    0.00000000
     atom   12 type  1   force =     0.00000000    0.00000000    0.00000000
     atom   13 type  1   force =     0.00000000    0.00000000    0.00000000
     atom   14 type  1   force =     0.00000000    0.00000000    0.00000000
     atom   15 type  1   force =     0.00000000    0.00000000    0.00000000
     atom   16 type  1   force =     0.00000000    0.00000000    0.00000000
     atom   17 type  1   force =     0.00000000    0.00000000    0.00000000
     atom   18 type  1   force =     0.00000000    0.00000000    0.00000000
     atom   19 type  1   force =     0.00000000    0.00000000    0.00000000
     atom   20 type  1   force =     0.00000000    0.00000000    0.00000000
     atom   21 type  1   force =     0.00000000    0.00000000    0.00000000
     atom   22 type  1   force =     0.00000000    0.00000000    0.00000000
     atom   23 type  1   force =     0.00000000    0.00000000    0.00000000
     atom   24 type  1   force =     0.00000000    0.00000000    0.00000000
     atom   25 type  1   force =     0.00000000    0.00000000    0.00000000
     atom   26 type  1   force =     0.00000000    0.00000000    0.00000000
     atom   27 type  1   force =     0.00000000    0.00000000    0.00000000
     atom   28 type  1   force =     0.00000000    0.00000000    0.00000000
     atom   29 type  1   force =     0.00000000    0.00000000    0.00000000
     atom   30 type  1   force =     0.00000000    0.00000000    0.00000000
     atom   31 type  1   force =     0.00000000    0.00000000    0.00000000
     atom   32 type  1   force =     0.00000000    0.00000000    0.00000000
     atom   33 type  1   force =     0.00000000    0.00000000    0.00000000
     atom   34 type  1   force =     0.00000000    0.00000000    0.00000000
     atom   35 type  1   force =     0.00000000    0.00000000    0.00000000
     atom   36 type  1   force =     0.00000000    0.00000000    0.00000000
     atom   37 type  1   force =     0.00000000    0.00000000    0.00000000
     atom   38 type  1   force =     0.00000000    0.00000000    0.00000000
     atom   39 type  1   force =     0.00000000    0.00000000    0.00000000
     atom   40 type  1   force =     0.00000000    0.00000000    0.00000000
     atom   41 type  1   force =     0.00000000    0.00000000    0.00000000
     atom   42 type  1   force =     0.00000000    0.00000000    0.00000000
     atom   43 type  1   force =     0.00000000    0.00000000    0.00000000
     atom   44 type  1   force =     0.00000000    0.00000000    0.00000000
     atom   45 type  1   force =     0.00000000    0.00000000    0.00000000
     atom   46 type  1   force =     0.00000000    0.00000000    0.00000000
     atom   47 type  1   force =     0.00000000    0.00000000    0.00000000
     atom   48 type  1   force =     0.00000000    0.00000000    0.00000000
     atom   49 type  1   force =     0.00000000    0.00000000    0.00000000
     atom   50 type  1   force =     0.00000000    0.00000000    0.00000000
     atom   51 type  1   force =     0.00000000    0.00000000    0.00000000
     atom   52 type  1   force =     0.00000000    0.00000000    0.00000000
     atom   53 type  1   force =     0.00000000    0.00000000    0.00000000
     atom   54 type  1   force =     0.00000000    0.00000000    0.00000000
     atom   55 type  1   force =     0.00000000    0.00000000    0.00000000
     atom   56 type  1   force =     0.00000000    0.00000000    0.00000000
     atom   57 type  1   force =     0.00000000    0.00000000    0.00000000
     atom   58 type  1   force =     0.00000000    0.00000000    0.00000000
     atom   59 type  1   force =     0.00000000    0.00000000    0.00000000
     atom   60 type  1   force =     0.00000000    0.00000000    0.00000000
     atom   61 type  1   force =     0.00000000    0.00000000    0.00000000
     atom   62 type  1   force =     0.00000000    0.00000000    0.00000000
     atom   63 type  2   force =     0.00000000    0.00000000    0.00000000
     The Hubbard contrib.    to forces
     atom    1 type  1   force =     0.00000000    0.00000000    0.00000000
     atom    2 type  1   force =     0.00000000    0.00000000    0.00000000
     atom    3 type  1   force =     0.00000000    0.00000000    0.00000000
     atom    4 type  1   force =     0.00000000    0.00000000    0.00000000
     atom    5 type  1   force =     0.00000000    0.00000000    0.00000000
     atom    6 type  1   force =     0.00000000    0.00000000    0.00000000
     atom    7 type  1   force =     0.00000000    0.00000000    0.00000000
     atom    8 type  1   force =     0.00000000    0.00000000    0.00000000
     atom    9 type  1   force =     0.00000000    0.00000000    0.00000000
     atom   10 type  1   force =     0.00000000    0.00000000    0.00000000
     atom   11 type  1   force =     0.00000000    0.00000000    0.00000000
     atom   12 type  1   force =     0.00000000    0.00000000    0.00000000
     atom   13 type  1   force =     0.00000000    0.00000000    0.00000000
     atom   14 type  1   force =     0.00000000    0.00000000    0.00000000
     atom   15 type  1   force =     0.00000000    0.00000000    0.00000000
     atom   16 type  1   force =     0.00000000    0.00000000    0.00000000
     atom   17 type  1   force =     0.00000000    0.00000000    0.00000000
     atom   18 type  1   force =     0.00000000    0.00000000    0.00000000
     atom   19 type  1   force =     0.00000000    0.00000000    0.00000000
     atom   20 type  1   force =     0.00000000    0.00000000    0.00000000
     atom   21 type  1   force =     0.00000000    0.00000000    0.00000000
     atom   22 type  1   force =     0.00000000    0.00000000    0.00000000
     atom   23 type  1   force =     0.00000000    0.00000000    0.00000000
     atom   24 type  1   force =     0.00000000    0.00000000    0.00000000
     atom   25 type  1   force =     0.00000000    0.00000000    0.00000000
     atom   26 type  1   force =     0.00000000    0.00000000    0.00000000
     atom   27 type  1   force =     0.00000000    0.00000000    0.00000000
     atom   28 type  1   force =     0.00000000    0.00000000    0.00000000
     atom   29 type  1   force =     0.00000000    0.00000000    0.00000000
     atom   30 type  1   force =     0.00000000    0.00000000    0.00000000
     atom   31 type  1   force =     0.00000000    0.00000000    0.00000000
     atom   32 type  1   force =     0.00000000    0.00000000    0.00000000
     atom   33 type  1   force =     0.00000000    0.00000000    0.00000000
     atom   34 type  1   force =     0.00000000    0.00000000    0.00000000
     atom   35 type  1   force =     0.00000000    0.00000000    0.00000000
     atom   36 type  1   force =     0.00000000    0.00000000    0.00000000
     atom   37 type  1   force =     0.00000000    0.00000000    0.00000000
     atom   38 type  1   force =     0.00000000    0.00000000    0.00000000
     atom   39 type  1   force =     0.00000000    0.00000000    0.00000000
     atom   40 type  1   force =     0.00000000    0.00000000    0.00000000
     atom   41 type  1   force =     0.00000000    0.00000000    0.00000000
     atom   42 type  1   force =     0.00000000    0.00000000    0.00000000
     atom   43 type  1   force =     0.00000000    0.00000000    0.00000000
     atom   44 type  1   force =     0.00000000    0.00000000    0.00000000
     atom   45 type  1   force =     0.00000000    0.00000000    0.00000000
     atom   46 type  1   force =     0.00000000    0.00000000    0.00000000
     atom   47 type  1   force =     0.00000000    0.00000000    0.00000000
     atom   48 type  1   force =     0.00000000    0.00000000    0.00000000
     atom   49 type  1   force =     0.00000000    0.00000000    0.00000000
     atom   50 type  1   force =     0.00000000    0.00000000    0.00000000
     atom   51 type  1   force =     0.00000000    0.00000000    0.00000000
     atom   52 type  1   force =     0.00000000    0.00000000    0.00000000
     atom   53 type  1   force =     0.00000000    0.00000000    0.00000000
     atom   54 type  1   force =     0.00000000    0.00000000    0.00000000
     atom   55 type  1   force =     0.00000000    0.00000000    0.00000000
     atom   56 type  1   force =     0.00000000    0.00000000    0.00000000
     atom   57 type  1   force =     0.00000000    0.00000000    0.00000000
     atom   58 type  1   force =     0.00000000    0.00000000    0.00000000
     atom   59 type  1   force =     0.00000000    0.00000000    0.00000000
     atom   60 type  1   force =     0.00000000    0.00000000    0.00000000
     atom   61 type  1   force =     0.00000000    0.00000000    0.00000000
     atom   62 type  1   force =     0.00000000    0.00000000    0.00000000
     atom   63 type  2   force =     0.00000000    0.00000000    0.00000000
     The SCF correction term to forces
     atom    1 type  1   force =    -0.00003404    0.00003404    0.00003404
     atom    2 type  1   force =     0.00018373   -0.00018373    0.00007891
     atom    3 type  1   force =     0.00001388   -0.00001388    0.00013832
     atom    4 type  1   force =    -0.00016574    0.00016574    0.00007994
     atom    5 type  1   force =    -0.00007891   -0.00018373   -0.00018373
     atom    6 type  1   force =    -0.00009468   -0.00007389    0.00009468
     atom    7 type  1   force =     0.00001130   -0.00012189    0.00000050
     atom    8 type  1   force =    -0.00015910    0.00006189   -0.00013577
     atom    9 type  1   force =    -0.00013832   -0.00001388   -0.00001388
     atom   10 type  1   force =    -0.00000050   -0.00012189   -0.00001130
     atom   11 type  1   force =     0.00001388    0.00013832   -0.00001388
     atom   12 type  1   force =     0.00012189    0.00000050   -0.00001130
     atom   13 type  1   force =    -0.00007994    0.00016574    0.00016574
     atom   14 type  1   force =     0.00013577    0.00006189    0.00015910
     atom   15 type  1   force =     0.00001130    0.00000050   -0.00012189
     atom   16 type  1   force =     0.00004435   -0.00012006   -0.00004435
     atom   17 type  1   force =     0.00018373    0.00007891   -0.00018373
     atom   18 type  1   force =     0.00007389    0.00009468    0.00009468
     atom   19 type  1   force =     0.00012189   -0.00001130    0.00000050
     atom   20 type  1   force =    -0.00006189    0.00015910   -0.00013577
     atom   21 type  1   force =    -0.00009468    0.00009468   -0.00007389
     atom   22 type  1   force =     0.00004435   -0.00004435   -0.00012006
     atom   23 type  1   force =    -0.00002193    0.00002193   -0.00004756
     atom   24 type  1   force =    -0.00000050   -0.00001130   -0.00012189
     atom   25 type  1   force =     0.00012006   -0.00004435   -0.00004435
     atom   26 type  1   force =    -0.00016574    0.00007994    0.00016574
     atom   27 type  1   force =    -0.00006189   -0.00013577    0.00015910
     atom   28 type  1   force =     0.00013577    0.00015910    0.00006189
     atom   29 type  1   force =     0.00004756    0.00002193    0.00002193
     atom   30 type  1   force =    -0.00015910   -0.00013577    0.00006189
     atom   31 type  1   force =    -0.00002193   -0.00004756    0.00002193
     atom   32 type  1   force =    -0.00017509   -0.00009308   -0.00009308
     atom   33 type  1   force =    -0.00001030   -0.00023852    0.00001030
     atom   34 type  1   force =     0.00001603   -0.00000996    0.00007528
     atom   35 type  1   force =    -0.00012271    0.00004358   -0.00002100
     atom   36 type  1   force =    -0.00000131   -0.00007353   -0.00007353
     atom   37 type  1   force =    -0.00007528   -0.00000996   -0.00001603
     atom   38 type  1   force =     0.00007353    0.00000131   -0.00007353
     atom   39 type  1   force =     0.00000996    0.00007528   -0.00001603
     atom   40 type  1   force =    -0.00010576   -0.00002157   -0.00002157
     atom   41 type  1   force =     0.00002100    0.00004358    0.00012271
     atom   42 type  1   force =     0.00001603    0.00007528   -0.00000996
     atom   43 type  1   force =     0.00011143   -0.00005997   -0.00011143
     atom   44 type  1   force =    -0.00018254    0.00018254    0.00018254
     atom   45 type  1   force =     0.00009308   -0.00009308    0.00017509
     atom   46 type  1   force =     0.00007353   -0.00007353    0.00000131
     atom   47 type  1   force =     0.00002157   -0.00002157    0.00010576
     atom   48 type  1   force =    -0.00001030    0.00001030   -0.00023852
     atom   49 type  1   force =     0.00011143   -0.00011143   -0.00005997
     atom   50 type  1   force =    -0.00010717    0.00010717   -0.00020958
     atom   51 type  1   force =    -0.00007528   -0.00001603   -0.00000996
     atom   52 type  1   force =     0.00005997   -0.00011143   -0.00011143
     atom   53 type  1   force =     0.00002157    0.00010576   -0.00002157
     atom   54 type  1   force =    -0.00004358   -0.00002100    0.00012271
     atom   55 type  1   force =     0.00002100    0.00012271    0.00004358
     atom   56 type  1   force =     0.00020958    0.00010717    0.00010717
     atom   57 type  1   force =    -0.00012271   -0.00002100    0.00004358
     atom   58 type  1   force =    -0.00010717   -0.00020958    0.00010717
     atom   59 type  1   force =     0.00009308    0.00017509   -0.00009308
     atom   60 type  1   force =     0.00023852    0.00001030    0.00001030
     atom   61 type  1   force =     0.00000996   -0.00001603    0.00007528
     atom   62 type  1   force =    -0.00004358    0.00012271   -0.00002100
     atom   63 type  2   force =     0.00002044   -0.00002044   -0.00002044

     Total force =     0.248674     Total SCF correction =     0.001374

     BFGS Geometry Optimization

     number of scf cycles    =   1
     number of bfgs steps    =   0

     energy   new            =    -724.7585348935 Ry

     new trust radius        =       0.1140665442 bohr
     new conv_thr            =       0.0000010000 Ry


ATOMIC_POSITIONS (crystal)
C        0.000046502  -0.000046502  -0.000046502
C        0.749685388   0.250314645   0.000192675
C        0.500009678   0.499990322  -0.000188750
C        0.250169038   0.749830929   0.000224528
C       -0.000192675   0.250314645   0.250314678
C        0.748675249   0.497252784   0.251324817
C        0.499580534   0.747886861   0.252332012
C        0.250321014  -0.000167685   0.249775497
C        0.000188750   0.499990322   0.499990389
C        0.747668021   0.747886861   0.500419533
C        0.500009678  -0.000188750   0.499990322
C        0.252113139   0.252331995   0.500419533
C       -0.000224528   0.749830929   0.749830929
C        0.750224536  -0.000167685   0.749678953
C        0.499580534   0.252331979   0.747886927
C        0.251949712   0.498954838   0.748050321
C        0.749685388   0.000192675   0.250314678
C        0.502747216   0.251324817   0.251324784
C        0.252113106   0.500419466   0.252332045
C        0.000167685   0.749678953   0.249775530
C        0.748675249   0.251324767   0.497252851
C        0.251949712   0.748050255   0.498954938
C       -0.000075710   0.000075710   0.500081026
C        0.747668021   0.500419466   0.747886861
C        0.501045196   0.748050255   0.748050255
C        0.250169071   0.000224528   0.749830995
C        0.000167685   0.249775497   0.749678953
C        0.750224536   0.749678953  -0.000167685
C        0.499918974   0.000075710   0.000075710
C        0.250321014   0.249775497  -0.000167685
C       -0.000075710   0.500081026   0.000075710
C        0.125004230   0.125057189   0.125057206
C        0.875193284   0.375272087   0.124806766
C        0.624386289   0.624740251   0.125681263
C        0.375171712   0.875255087   0.124633562
C        0.125072638   0.374688937   0.374688971
C        0.874318737   0.624740251   0.375613778
C        0.625311063   0.874927345   0.374688971
C        0.375259783   0.125681238   0.375613711
C        0.125103307   0.625246957   0.625247024
C        0.875366505   0.875255087   0.624828322
C        0.624386289   0.125681263   0.624740251
C        0.370480095   0.372872550   0.629519939
C        0.125096310   0.874903723   0.874903723
C        0.874942861   0.125057156   0.874995820
C        0.625311063   0.374688937   0.874927412
C        0.374753010   0.625247024   0.874896743
C        0.875193284   0.124806724   0.375272154
C        0.370480095   0.629519939   0.372872584
C        0.124608476   0.875391507   0.375593651
C        0.874318804   0.375613711   0.624740251
C        0.627127450   0.629519872   0.629519939
C        0.374753010   0.874896609   0.625247024
C        0.124744896   0.124633545   0.624828389
C        0.875366505   0.624828255   0.875255154
C        0.624406383   0.875391574   0.875391574
C        0.375171712   0.124633545   0.875255087
C        0.124608493   0.375593617   0.875391574
C        0.874942861   0.874995753   0.125057189
C        0.624727913   0.124806766   0.124806783
C        0.375259783   0.375613711   0.125681263
C        0.124744879   0.624828322   0.124633562
N        0.629883258   0.370116742   0.370116742



     Writing output data file di.save
     NEW-OLD atomic charge density approx. for the potential

     total cpu time spent up to now is       44.1 secs

     per-process dynamical memory:    77.4 Mb

     Self-consistent Calculation

     iteration #  1     ecut=    70.00 Ry     beta=0.70
     Davidson diagonalization with overlap
     c_bands:  1 eigenvalues not converged
     ethr =  1.00E-06,  avg # of iterations = 20.0

     total cpu time spent up to now is       53.3 secs

     total energy              =    -724.79406582 Ry
     Harris-Foulkes estimate   =    -724.80105036 Ry
     estimated scf accuracy    <       0.01364958 Ry

     total magnetization       =     2.00 Bohr mag/cell
     absolute magnetization    =     2.19 Bohr mag/cell

     iteration #  2     ecut=    70.00 Ry     beta=0.70
     Davidson diagonalization with overlap
     ethr =  5.37E-06,  avg # of iterations =  4.2

     total cpu time spent up to now is       56.3 secs

     total energy              =    -724.79574568 Ry
     Harris-Foulkes estimate   =    -724.80070781 Ry
     estimated scf accuracy    <       0.00912279 Ry

     total magnetization       =     2.00 Bohr mag/cell
     absolute magnetization    =     2.20 Bohr mag/cell

     iteration #  3     ecut=    70.00 Ry     beta=0.70
     Davidson diagonalization with overlap
     ethr =  3.59E-06,  avg # of iterations =  4.2

     total cpu time spent up to now is       58.9 secs

     total energy              =    -724.79810008 Ry
     Harris-Foulkes estimate   =    -724.79892154 Ry
     estimated scf accuracy    <       0.00193756 Ry

     total magnetization       =     2.00 Bohr mag/cell
     absolute magnetization    =     2.20 Bohr mag/cell

     iteration #  4     ecut=    70.00 Ry     beta=0.70
     Davidson diagonalization with overlap
     ethr =  7.63E-07,  avg # of iterations =  4.0

     total cpu time spent up to now is       61.0 secs

     total energy              =    -724.79852204 Ry
     Harris-Foulkes estimate   =    -724.79860231 Ry
     estimated scf accuracy    <       0.00019880 Ry

     total magnetization       =     2.00 Bohr mag/cell
     absolute magnetization    =     2.21 Bohr mag/cell

     iteration #  5     ecut=    70.00 Ry     beta=0.70
     Davidson diagonalization with overlap
     ethr =  7.83E-08,  avg # of iterations =  3.0

     total cpu time spent up to now is       63.0 secs

[...]
     atom   11 type  1   force =     0.00000000    0.00000000    0.00000000
     atom   12 type  1   force =     0.00000000    0.00000000    0.00000000
     atom   13 type  1   force =     0.00000000    0.00000000    0.00000000
     atom   14 type  1   force =     0.00000000    0.00000000    0.00000000
     atom   15 type  1   force =     0.00000000    0.00000000    0.00000000
     atom   16 type  1   force =     0.00000000    0.00000000    0.00000000
     atom   17 type  1   force =     0.00000000    0.00000000    0.00000000
     atom   18 type  1   force =     0.00000000    0.00000000    0.00000000
     atom   19 type  1   force =     0.00000000    0.00000000    0.00000000
     atom   20 type  1   force =     0.00000000    0.00000000    0.00000000
     atom   21 type  1   force =     0.00000000    0.00000000    0.00000000
     atom   22 type  1   force =     0.00000000    0.00000000    0.00000000
     atom   23 type  1   force =     0.00000000    0.00000000    0.00000000
     atom   24 type  1   force =     0.00000000    0.00000000    0.00000000
     atom   25 type  1   force =     0.00000000    0.00000000    0.00000000
     atom   26 type  1   force =     0.00000000    0.00000000    0.00000000
     atom   27 type  1   force =     0.00000000    0.00000000    0.00000000
     atom   28 type  1   force =     0.00000000    0.00000000    0.00000000
     atom   29 type  1   force =     0.00000000    0.00000000    0.00000000
     atom   30 type  1   force =     0.00000000    0.00000000    0.00000000
     atom   31 type  1   force =     0.00000000    0.00000000    0.00000000
     atom   32 type  1   force =     0.00000000    0.00000000    0.00000000
     atom   33 type  1   force =     0.00000000    0.00000000    0.00000000
     atom   34 type  1   force =     0.00000000    0.00000000    0.00000000
     atom   35 type  1   force =     0.00000000    0.00000000    0.00000000
     atom   36 type  1   force =     0.00000000    0.00000000    0.00000000
     atom   37 type  1   force =     0.00000000    0.00000000    0.00000000
     atom   38 type  1   force =     0.00000000    0.00000000    0.00000000
     atom   39 type  1   force =     0.00000000    0.00000000    0.00000000
     atom   40 type  1   force =     0.00000000    0.00000000    0.00000000
     atom   41 type  1   force =     0.00000000    0.00000000    0.00000000
     atom   42 type  1   force =     0.00000000    0.00000000    0.00000000
     atom   43 type  1   force =     0.00000000    0.00000000    0.00000000
     atom   44 type  1   force =     0.00000000    0.00000000    0.00000000
     atom   45 type  1   force =     0.00000000    0.00000000    0.00000000
     atom   46 type  1   force =     0.00000000    0.00000000    0.00000000
     atom   47 type  1   force =     0.00000000    0.00000000    0.00000000
     atom   48 type  1   force =     0.00000000    0.00000000    0.00000000
     atom   49 type  1   force =     0.00000000    0.00000000    0.00000000
     atom   50 type  1   force =     0.00000000    0.00000000    0.00000000
     atom   51 type  1   force =     0.00000000    0.00000000    0.00000000
     atom   52 type  1   force =     0.00000000    0.00000000    0.00000000
     atom   53 type  1   force =     0.00000000    0.00000000    0.00000000
     atom   54 type  1   force =     0.00000000    0.00000000    0.00000000
     atom   55 type  1   force =     0.00000000    0.00000000    0.00000000
     atom   56 type  1   force =     0.00000000    0.00000000    0.00000000
     atom   57 type  1   force =     0.00000000    0.00000000    0.00000000
     atom   58 type  1   force =     0.00000000    0.00000000    0.00000000
     atom   59 type  1   force =     0.00000000    0.00000000    0.00000000
     atom   60 type  1   force =     0.00000000    0.00000000    0.00000000
     atom   61 type  1   force =     0.00000000    0.00000000    0.00000000
     atom   62 type  1   force =     0.00000000    0.00000000    0.00000000
     atom   63 type  2   force =     0.00000000    0.00000000    0.00000000
     The Hubbard contrib.    to forces
     atom    1 type  1   force =     0.00000000    0.00000000    0.00000000
     atom    2 type  1   force =     0.00000000    0.00000000    0.00000000
     atom    3 type  1   force =     0.00000000    0.00000000    0.00000000
     atom    4 type  1   force =     0.00000000    0.00000000    0.00000000
     atom    5 type  1   force =     0.00000000    0.00000000    0.00000000
     atom    6 type  1   force =     0.00000000    0.00000000    0.00000000
     atom    7 type  1   force =     0.00000000    0.00000000    0.00000000
     atom    8 type  1   force =     0.00000000    0.00000000    0.00000000
     atom    9 type  1   force =     0.00000000    0.00000000    0.00000000
     atom   10 type  1   force =     0.00000000    0.00000000    0.00000000
     atom   11 type  1   force =     0.00000000    0.00000000    0.00000000
     atom   12 type  1   force =     0.00000000    0.00000000    0.00000000
     atom   13 type  1   force =     0.00000000    0.00000000    0.00000000
     atom   14 type  1   force =     0.00000000    0.00000000    0.00000000
     atom   15 type  1   force =     0.00000000    0.00000000    0.00000000
     atom   16 type  1   force =     0.00000000    0.00000000    0.00000000
     atom   17 type  1   force =     0.00000000    0.00000000    0.00000000
     atom   18 type  1   force =     0.00000000    0.00000000    0.00000000
     atom   19 type  1   force =     0.00000000    0.00000000    0.00000000
     atom   20 type  1   force =     0.00000000    0.00000000    0.00000000
     atom   21 type  1   force =     0.00000000    0.00000000    0.00000000
     atom   22 type  1   force =     0.00000000    0.00000000    0.00000000
     atom   23 type  1   force =     0.00000000    0.00000000    0.00000000
     atom   24 type  1   force =     0.00000000    0.00000000    0.00000000
     atom   25 type  1   force =     0.00000000    0.00000000    0.00000000
     atom   26 type  1   force =     0.00000000    0.00000000    0.00000000
     atom   27 type  1   force =     0.00000000    0.00000000    0.00000000
     atom   28 type  1   force =     0.00000000    0.00000000    0.00000000
     atom   29 type  1   force =     0.00000000    0.00000000    0.00000000
     atom   30 type  1   force =     0.00000000    0.00000000    0.00000000
     atom   31 type  1   force =     0.00000000    0.00000000    0.00000000
     atom   32 type  1   force =     0.00000000    0.00000000    0.00000000
     atom   33 type  1   force =     0.00000000    0.00000000    0.00000000
     atom   34 type  1   force =     0.00000000    0.00000000    0.00000000
     atom   35 type  1   force =     0.00000000    0.00000000    0.00000000
     atom   36 type  1   force =     0.00000000    0.00000000    0.00000000
     atom   37 type  1   force =     0.00000000    0.00000000    0.00000000
     atom   38 type  1   force =     0.00000000    0.00000000    0.00000000
     atom   39 type  1   force =     0.00000000    0.00000000    0.00000000
     atom   40 type  1   force =     0.00000000    0.00000000    0.00000000
     atom   41 type  1   force =     0.00000000    0.00000000    0.00000000
     atom   42 type  1   force =     0.00000000    0.00000000    0.00000000
     atom   43 type  1   force =     0.00000000    0.00000000    0.00000000
     atom   44 type  1   force =     0.00000000    0.00000000    0.00000000
     atom   45 type  1   force =     0.00000000    0.00000000    0.00000000
     atom   46 type  1   force =     0.00000000    0.00000000    0.00000000
     atom   47 type  1   force =     0.00000000    0.00000000    0.00000000
     atom   48 type  1   force =     0.00000000    0.00000000    0.00000000
     atom   49 type  1   force =     0.00000000    0.00000000    0.00000000
     atom   50 type  1   force =     0.00000000    0.00000000    0.00000000
     atom   51 type  1   force =     0.00000000    0.00000000    0.00000000
     atom   52 type  1   force =     0.00000000    0.00000000    0.00000000
     atom   53 type  1   force =     0.00000000    0.00000000    0.00000000
     atom   54 type  1   force =     0.00000000    0.00000000    0.00000000
     atom   55 type  1   force =     0.00000000    0.00000000    0.00000000
     atom   56 type  1   force =     0.00000000    0.00000000    0.00000000
     atom   57 type  1   force =     0.00000000    0.00000000    0.00000000
     atom   58 type  1   force =     0.00000000    0.00000000    0.00000000
     atom   59 type  1   force =     0.00000000    0.00000000    0.00000000
     atom   60 type  1   force =     0.00000000    0.00000000    0.00000000
     atom   61 type  1   force =     0.00000000    0.00000000    0.00000000
     atom   62 type  1   force =     0.00000000    0.00000000    0.00000000
     atom   63 type  2   force =     0.00000000    0.00000000    0.00000000
     The SCF correction term to forces
     atom    1 type  1   force =     0.00000326   -0.00000326   -0.00000326
     atom    2 type  1   force =    -0.00002924    0.00002924   -0.00004398
     atom    3 type  1   force =     0.00001552   -0.00001552    0.00000068
     atom    4 type  1   force =     0.00000728   -0.00000728    0.00007080
     atom    5 type  1   force =     0.00004398    0.00002924    0.00002924
     atom    6 type  1   force =    -0.00000794    0.00002546    0.00000794
     atom    7 type  1   force =    -0.00000634   -0.00000067    0.00001129
     atom    8 type  1   force =     0.00002484   -0.00000443    0.00001109
     atom    9 type  1   force =    -0.00000068   -0.00001552   -0.00001552
     atom   10 type  1   force =    -0.00001129   -0.00000067    0.00000634
     atom   11 type  1   force =     0.00001552    0.00000068   -0.00001552
     atom   12 type  1   force =     0.00000067    0.00001129    0.00000634
     atom   13 type  1   force =    -0.00007080   -0.00000728   -0.00000728
     atom   14 type  1   force =    -0.00001109   -0.00000443   -0.00002484
     atom   15 type  1   force =    -0.00000634    0.00001129   -0.00000067
     atom   16 type  1   force =     0.00001342   -0.00007128   -0.00001342
     atom   17 type  1   force =    -0.00002924   -0.00004398    0.00002924
     atom   18 type  1   force =    -0.00002546    0.00000794    0.00000794
     atom   19 type  1   force =     0.00000067    0.00000634    0.00001129
     atom   20 type  1   force =     0.00000443   -0.00002484    0.00001109
     atom   21 type  1   force =    -0.00000794    0.00000794    0.00002546
     atom   22 type  1   force =     0.00001342   -0.00001342   -0.00007128
     atom   23 type  1   force =    -0.00001082    0.00001082    0.00000631
     atom   24 type  1   force =    -0.00001129    0.00000634   -0.00000067
     atom   25 type  1   force =     0.00007128   -0.00001342   -0.00001342
     atom   26 type  1   force =     0.00000728    0.00007080   -0.00000728
     atom   27 type  1   force =     0.00000443    0.00001109   -0.00002484
     atom   28 type  1   force =    -0.00001109   -0.00002484   -0.00000443
     atom   29 type  1   force =    -0.00000631    0.00001082    0.00001082
     atom   30 type  1   force =     0.00002484    0.00001109   -0.00000443
     atom   31 type  1   force =    -0.00001082    0.00000631    0.00001082
     atom   32 type  1   force =     0.00005947    0.00001774    0.00001774
     atom   33 type  1   force =     0.00000061    0.00004178   -0.00000061
     atom   34 type  1   force =     0.00000090    0.00000859    0.00000283
     atom   35 type  1   force =     0.00000883   -0.00000031    0.00005086
     atom   36 type  1   force =     0.00001651    0.00001024    0.00001024
     atom   37 type  1   force =    -0.00000283    0.00000859   -0.00000090
     atom   38 type  1   force =    -0.00001024   -0.00001651    0.00001024
     atom   39 type  1   force =    -0.00000859    0.00000283   -0.00000090
     atom   40 type  1   force =    -0.00002879   -0.00004540   -0.00004540
     atom   41 type  1   force =    -0.00005086   -0.00000031   -0.00000883
     atom   42 type  1   force =     0.00000090    0.00000283    0.00000859
     atom   43 type  1   force =     0.00000247   -0.00002977   -0.00000247
     atom   44 type  1   force =    -0.00001554    0.00001554    0.00001554
     atom   45 type  1   force =    -0.00001774    0.00001774   -0.00005947
     atom   46 type  1   force =    -0.00001024    0.00001024   -0.00001651
     atom   47 type  1   force =     0.00004540   -0.00004540    0.00002879
     atom   48 type  1   force =     0.00000061   -0.00000061    0.00004178
     atom   49 type  1   force =     0.00000247   -0.00000247   -0.00002977
     atom   50 type  1   force =     0.00001114   -0.00001114   -0.00003355
     atom   51 type  1   force =    -0.00000283   -0.00000090    0.00000859
     atom   52 type  1   force =     0.00002977   -0.00000247   -0.00000247
     atom   53 type  1   force =     0.00004540    0.00002879   -0.00004540
     atom   54 type  1   force =     0.00000031    0.00005086   -0.00000883
     atom   55 type  1   force =    -0.00005086   -0.00000883   -0.00000031
     atom   56 type  1   force =     0.00003355   -0.00001114   -0.00001114
     atom   57 type  1   force =     0.00000883    0.00005086   -0.00000031
     atom   58 type  1   force =     0.00001114   -0.00003355   -0.00001114
     atom   59 type  1   force =    -0.00001774   -0.00005947    0.00001774
     atom   60 type  1   force =    -0.00004178   -0.00000061   -0.00000061
     atom   61 type  1   force =    -0.00000859   -0.00000090    0.00000283
     atom   62 type  1   force =     0.00000031   -0.00000883    0.00005086
     atom   63 type  2   force =    -0.00002178    0.00002178    0.00002178

     Total force =     0.005626     Total SCF correction =     0.000335

     bfgs converged in   6 scf cycles and   5 bfgs steps
     (criteria: energy <  1.0E-04 Ry, force <  1.0E-03 Ry/Bohr)

     End of BFGS Geometry Optimization

     Final energy   =    -724.8127364662 Ry
Begin final coordinates

ATOMIC_POSITIONS (crystal)
C        0.000136000  -0.000136000  -0.000136000
C        0.749914993   0.250085040  -0.001273860
C        0.499888127   0.500111873   0.000108957
C        0.250215623   0.749784344   0.000093540
C        0.001273860   0.250085040   0.250085073
C        0.749612988   0.494407538   0.250387078
C        0.498490946   0.748165250   0.252613291
C        0.251070810   0.001007795   0.250419003
C       -0.000108957   0.500111873   0.500111940
C        0.747386742   0.748165250   0.501509121
C        0.499888127   0.000108957   0.500111873
C        0.251834750   0.252613274   0.501509121
C       -0.000093540   0.749784344   0.749784344
C        0.749581030   0.001007795   0.748929157
C        0.498490946   0.252613258   0.748165316
C        0.250403901   0.499182289   0.749596132
C        0.749914993  -0.001273860   0.250085073
C        0.505592462   0.250387078   0.250387045
C        0.251834717   0.501509054   0.252613324
C       -0.001007795   0.748929157   0.250419036
C        0.749612988   0.250387028   0.494407605
C        0.250403901   0.749596066   0.499182389
C       -0.000050558   0.000050558   0.499967069
C        0.747386742   0.501509054   0.748165250
C        0.500817745   0.749596066   0.749596066
C        0.250215656   0.000093540   0.749784410
C       -0.001007795   0.250419003   0.748929157
C        0.749581030   0.748929157   0.001007795
C        0.500032931   0.000050558   0.000050558
C        0.251070810   0.250419003   0.001007795
C       -0.000050558   0.499967069   0.000050558
C        0.125907201   0.125287936   0.125287953
C        0.876434253   0.374797813   0.123565797
C        0.623705840   0.622896841   0.127209987
C        0.375675596   0.875648722   0.124714987
C        0.126109671   0.375596414   0.375596448
C        0.872790013   0.622896841   0.376294227
C        0.624403586   0.873890312   0.375596448
C        0.377103193   0.127209962   0.376294160
C        0.125232641   0.624958801   0.624958868
C        0.875285080   0.875648722   0.624324438
C        0.623705840   0.127209987   0.622896841
C        0.366201440   0.369682663   0.633798594
C        0.125219901   0.874780132   0.874780132
C        0.874712114   0.125287903   0.874092849
C        0.624403586   0.375596414   0.873890379
C        0.375041166   0.624958868   0.874767409
C        0.876434253   0.123565755   0.374797880
C        0.366201440   0.633798594   0.369682697
C        0.123980239   0.876019744   0.375997908
C        0.872790080   0.376294160   0.622896841
C        0.630317337   0.633798527   0.633798594
C        0.375041166   0.874767275   0.624958868
C        0.124351261   0.124714970   0.624324505
C        0.875285080   0.624324371   0.875648789
C        0.624002126   0.876019811   0.876019811
C        0.375675596   0.124714970   0.875648722
C        0.123980256   0.375997874   0.876019811
C        0.874712114   0.874092782   0.125287936
C        0.625202187   0.123565797   0.123565814
C        0.377103193   0.376294160   0.127209987
C        0.124351244   0.624324438   0.124714987
N        0.636308672   0.363691328   0.363691328
End final coordinates



     Writing output data file di.save
 
     init_run     :      1.17s CPU      1.46s WALL (       1 calls)
     electrons    :    132.43s CPU    135.73s WALL (       6 calls)
     update_pot   :      0.46s CPU      0.63s WALL (       5 calls)
     forces       :      2.32s CPU      2.34s WALL (       6 calls)

     Called by init_run:
     wfcinit      :      0.72s CPU      0.81s WALL (       1 calls)
     wfcinit:atom :      0.00s CPU      0.01s WALL (       2 calls)
     wfcinit:wfcr :      0.67s CPU      0.75s WALL (       2 calls)
     potinit      :      0.07s CPU      0.08s WALL (       1 calls)

     Called by electrons:
     c_bands      :    124.72s CPU    127.45s WALL (      47 calls)
     sum_band     :      5.40s CPU      5.46s WALL (      47 calls)
     v_of_rho     :      1.84s CPU      1.86s WALL (      51 calls)
     v_h          :      0.05s CPU      0.05s WALL (      51 calls)
     v_xc         :      1.80s CPU      1.81s WALL (      51 calls)
     mix_rho      :      0.28s CPU      0.29s WALL (      47 calls)

     Called by c_bands:
     init_us_2    :      0.91s CPU      0.92s WALL (     202 calls)
     cegterg      :    117.65s CPU    120.25s WALL (      94 calls)

     Called by sum_band:

     Called by *egterg:
     h_psi        :     43.78s CPU     44.20s WALL (     551 calls)
     g_psi        :      0.28s CPU      0.28s WALL (     455 calls)
     cdiaghg      :     51.61s CPU     52.69s WALL (     535 calls)
     cegterg:over :      9.09s CPU      9.10s WALL (     455 calls)
     cegterg:upda :      7.69s CPU      7.77s WALL (     455 calls)
     cegterg:last :      2.91s CPU      2.93s WALL (     101 calls)
     cdiaghg:chol :      2.23s CPU      2.27s WALL (     535 calls)
     cdiaghg:inve :      0.97s CPU      0.97s WALL (     535 calls)
     cdiaghg:para :      8.36s CPU      9.02s WALL (    1070 calls)

     Called by h_psi:
     h_psi:pot    :     43.20s CPU     43.61s WALL (     551 calls)
     h_psi:calbec :      9.13s CPU      9.21s WALL (     551 calls)
     vloc_psi     :     24.61s CPU     24.85s WALL (     551 calls)
     add_vuspsi   :      9.45s CPU      9.55s WALL (     551 calls)

     General routines
     calbec       :     10.61s CPU     10.69s WALL (     599 calls)
     fft          :      0.58s CPU      0.66s WALL (    1073 calls)
     fftw         :     25.62s CPU     25.92s WALL (   98586 calls)
     davcio       :      0.00s CPU      0.04s WALL (       2 calls)
 
     Parallel routines
     fft_scatter  :      7.78s CPU      7.52s WALL (   99659 calls)
 
     PWSCF        :  2m17.00s CPU     2m26.94s WALL

 
   This run was terminated on:  17: 8:25  19Oct2018            

=------------------------------------------------------------------------------=
   JOB DONE.
=------------------------------------------------------------------------------=
