63   
78   

1    
  0.0100000000000000   0.0000000000000000   0.0000000000000000
  -0.4397447200   -0.0037483400   -0.0037483400
  -0.0511981700   -0.0393173100   -0.0025265300
  -0.0848469400    0.0449879600   -0.0154864400
  -0.0400159600    0.0389052700    0.0389052700
   0.0077536700   -0.0435942300    0.0548575800
  -0.0394618800    0.0409774000    0.0390288000
   0.0429491400   -0.0069468400    0.0546865700
  -0.0008036600   -0.0137117700   -0.0137117700
   0.0122818700    0.0437952600    0.0830126800
  -0.0511981700   -0.0025265300   -0.0393173100
  -0.3050209200   -0.3719654300    0.3042232600
   0.0740479000    0.0005356100    0.0005356100
   0.0757097500   -0.0011327500    0.0331352100
  -0.0394618800    0.0390288000    0.0409774000
  -0.0162235400   -0.0184799600    0.0139714800
   0.0177028500   -0.0181038300    0.0063447200
  -0.3050209200    0.3042232600   -0.3719654300
  -0.0607578000    0.0585349500   -0.0124858400
   0.0077536700    0.0548575800   -0.0435942300
   0.3719886000    0.3052230900    0.3052230900
   0.0177028500    0.0063447200   -0.0181038300
  -0.0454142500   -0.0136346500    0.0855675700
   0.0122818700    0.0830126800    0.0437952600
   0.0107185900    0.0575775500    0.0575775500
  -0.0848469400   -0.0154864400    0.0449879600
  -0.0607578000   -0.0124858400    0.0585349500
   0.0757097500    0.0331352100   -0.0011327500
   0.0192786100    0.0157292800    0.0157292800
   0.0429491400    0.0546865700   -0.0069468400
  -0.0162235400    0.0139714800   -0.0184799600
  -0.0454142500    0.0855675700   -0.0136346500
   0.0825288900    0.0399623200    0.0399623200
   0.0098303200    0.0121062700    0.0053792600
   0.0316215700   -0.0328896900   -0.0136338100
   0.0062176600   -0.0052630900   -0.0021000300
   0.0223623900   -0.0236715000   -0.0342012100
   0.0076776200   -0.0258945000   -0.0258945000
  -0.0143127400   -0.0502304600    0.0157305600
   0.0097625100   -0.1010325700    0.0710520800
   0.0098303200    0.0053792600    0.0121062700
  -0.0021610300   -0.0053034600   -0.0053034600
  -0.0697786900   -0.1010355500   -0.0113812100
   0.0062176600   -0.0021000300   -0.0052630900
   0.1010249100    0.0697785800   -0.0102914500
   0.0113881200    0.0001759500    0.0001759500
   0.0169338900   -0.0112080300    0.0191763700
   0.0200649500   -0.0333630800   -0.0192160100
   0.0097625100    0.0710520800   -0.1010325700
   0.0316215700   -0.0136338100   -0.0328896900
   0.0496542800    0.0144786800    0.0144786800
   0.1010249100   -0.0102914500    0.0697785800
  -0.0111871300   -0.0036307900    0.0047505700
  -0.0143127400    0.0157305600   -0.0502304600
   0.0601860900   -0.0590087700   -0.0881427600
   0.0200649500   -0.0192160100   -0.0333630800
  -0.0697786900   -0.0113812100   -0.1010355500
   0.0864980700   -0.0588577300   -0.0588577300
   0.0223623900   -0.0342012100   -0.0236715000
  -0.0111871300    0.0047505700   -0.0036307900
   0.0169338900    0.0191763700   -0.0112080300
   0.0344030100   -0.0192089000   -0.0192089000
   0.0601860900   -0.0881427600   -0.0590087700
   0.2621426900   -0.2629863600   -0.2629863600

1    
 -0.0100000000000000   0.0000000000000000   0.0000000000000000
   0.4531795000   -0.0096467900   -0.0096467900
  -0.0542834600   -0.0433402000   -0.0068578300
  -0.0837821000    0.0420394700   -0.0125689600
  -0.0466460200    0.0431465600    0.0431465600
   0.0015423600   -0.0390248100    0.0505870200
  -0.0426096900    0.0457517400    0.0430521300
   0.0396867200   -0.0024259800    0.0508115400
  -0.0073493800   -0.0182223200   -0.0182223200
   0.0157841800    0.0432186300    0.0856582000
  -0.0542834600   -0.0068578300   -0.0433402000
  -0.3044324800   -0.3728457300    0.3052297100
  -0.1210191900    0.0464578500    0.0464578500
  -0.1146245900    0.0399534700   -0.0080673100
  -0.0426096900    0.0430521300    0.0457517400
  -0.0125400300   -0.0209624700    0.0148107400
   0.0142819500   -0.0138897900    0.0018912300
  -0.3044324800    0.3052297100   -0.3728457300
  -0.0570795900    0.0592715600   -0.0098556700
   0.0015423600    0.0505870200   -0.0390248100
   0.3728286600    0.3042322000    0.3042322000
   0.0142819500    0.0018912300   -0.0138897900
  -0.0416265200   -0.0144349200    0.0830550500
   0.0157841800    0.0856582000    0.0432186300
   0.0116046700    0.0601810300    0.0601810300
  -0.0837821000   -0.0125689600    0.0420394700
  -0.0570795900   -0.0098556700    0.0592715600
  -0.1146245900   -0.0080673100    0.0399534700
   0.0201246900    0.0130506400    0.0130506400
   0.0396867200    0.0508115400   -0.0024259800
  -0.0125400300    0.0148107400   -0.0209624700
  -0.0416265200    0.0830550500   -0.0144349200
  -0.1075034800   -0.0011558100   -0.0011558100
  -0.0180190500   -0.0181711900   -0.0111723500
   0.0032894500   -0.0019577300   -0.0307694800
   0.0043195800   -0.0052650000   -0.0022389000
  -0.0059142200    0.0071571500   -0.0176678200
   0.0365821500   -0.0093958200   -0.0093958200
  -0.0155517100   -0.0513300300    0.0141113100
   0.0119438000   -0.0998152300    0.0697455100
  -0.0180190500   -0.0111723500   -0.0181711900
   0.0065119200   -0.0052500300   -0.0052500300
  -0.0710227500   -0.0997876700   -0.0103282900
   0.0043195800   -0.0022389000   -0.0052650000
   0.0998295300    0.0709931300   -0.0114078100
   0.0403556700   -0.0162412300   -0.0162412300
  -0.0108002900    0.0054229300   -0.0110204100
   0.0183026200   -0.0333529300   -0.0191274900
   0.0119438000    0.0697455100   -0.0998152300
   0.0032894500   -0.0307694800   -0.0019577300
   0.0518893000    0.0153606600    0.0153606600
   0.0998295300   -0.0114078100    0.0709931300
   0.0171446900    0.0122234500   -0.0112566100
  -0.0155517100    0.0141113100   -0.0513300300
   0.0588467500   -0.0600028000   -0.0872986700
   0.0183026200   -0.0191274900   -0.0333529300
  -0.0710227500   -0.0103282900   -0.0997876700
   0.0888951700   -0.0601357400   -0.0601357400
  -0.0059142200   -0.0176678200    0.0071571500
   0.0171446900   -0.0112566100    0.0122234500
  -0.0108002900   -0.0110204100    0.0054229300
   0.0323252700   -0.0191297600   -0.0191297600
   0.0588467500   -0.0872986700   -0.0600028000
   0.2628507900   -0.2619913900   -0.2619913900

2    
  0.0100000000000000   0.0000000000000000   0.0000000000000000
   0.0082993400   -0.0047769900   -0.0045751700
  -0.5003749500   -0.0413161500   -0.0099956600
  -0.0703055800    0.0264952800   -0.0215579400
  -0.0444937800    0.0415184700    0.0406825000
   0.0178628400   -0.0487599600    0.0673552400
  -0.0550597400    0.0513073300    0.0487099700
   0.0415420600   -0.0051457900    0.0533306800
  -0.0035114200   -0.0159788000   -0.0159559800
   0.0145735300    0.0429892400    0.0838636900
  -0.0569572000   -0.0046870500   -0.0414422200
  -0.3047195700   -0.3720564300    0.3047489300
  -0.0256776000    0.0241248700    0.0246716000
  -0.0180622100    0.0189078200    0.0140387200
  -0.0558883000    0.0327603500    0.0353972400
   0.0006053000   -0.0349986900    0.0231193000
   0.0301831700   -0.0078075100    0.0198945000
  -0.2934038800    0.2973826000   -0.3870891700
  -0.0601955100    0.0594784700   -0.0112193000
   0.0051523900    0.0533320500   -0.0411329000
   0.3727673600    0.3045947100    0.3047455500
   0.0163062700    0.0048000200   -0.0165282900
  -0.0429628200   -0.0139895300    0.0843689000
   0.0273153300    0.0923795600    0.0282278300
  -0.0036362300    0.0514233900    0.0667461500
  -0.0841071100   -0.0135372800    0.0427687400
  -0.0601785500   -0.0113993000    0.0585605200
  -0.0042862900    0.0286596600    0.0100780800
   0.0211246800    0.0143359300    0.0144290500
   0.0563859200    0.0687855800    0.0030368400
  -0.0142964800    0.0143636100   -0.0205154300
  -0.0417053600    0.0841387600   -0.0139905600
  -0.0121388900    0.0182564000    0.0185396500
  -0.0026776700   -0.0009130000   -0.0051041300
   0.0155309800   -0.0163613500   -0.0223509900
   0.1025040300    0.0164601700    0.0216231800
   0.0077560400   -0.0068310100   -0.0271295200
   0.0239471400   -0.0195016800   -0.0199044900
   0.0844682300   -0.0751126700    0.0378569200
   0.1046109100   -0.1205599400    0.0509592300
  -0.0027338300   -0.0047379500   -0.0007323900
   0.0040430900   -0.0031170800   -0.0033694900
  -0.0721220600   -0.0999835900   -0.0121766100
   0.0085444700   -0.0000810700   -0.0031767100
   0.1000697200    0.0709346200   -0.0116211600
   0.0274740800   -0.0103528600   -0.0098183900
   0.0066578300   -0.0051894500    0.0065409500
   0.0185660100   -0.0323650700   -0.0178889000
   0.0145301200    0.0682208200   -0.1023654200
   0.0158312800   -0.0234078200   -0.0173699900
   0.0482166000    0.0141129700    0.0149251500
   0.0995435300   -0.0118787500    0.0714060800
   0.0026773400    0.0034630100   -0.0042091500
  -0.0117253800    0.0175016700   -0.0523732000
   0.0622184500   -0.0578334600   -0.0891694100
   0.0187514600   -0.0184004900   -0.0325177400
  -0.0717903400   -0.0109830900   -0.0990082100
   0.0864178500   -0.0593999800   -0.0602388500
   0.0078463300   -0.0265236000   -0.0075653100
   0.0026649100   -0.0037211200    0.0036190200
   0.0972082700    0.0225430600   -0.0212941700
   0.0320679300   -0.0177517800   -0.0190637100
   0.0611103100   -0.0904651900   -0.0578262100
   0.2476356700   -0.2533449200   -0.2739674400

2    
 -0.0100000000000000   0.0000000000000000   0.0000000000000000
   0.0052142800   -0.0086518500   -0.0088456400
   0.3951062900   -0.0412083400    0.0007786400
  -0.0985217600    0.0607964000   -0.0064998400
  -0.0422457200    0.0405372500    0.0413790700
  -0.0083043100   -0.0339538500    0.0383536400
  -0.0268834900    0.0352792100    0.0331894000
   0.0410600300   -0.0042136800    0.0521305700
  -0.0047036900   -0.0159636800   -0.0159825400
   0.0134644700    0.0440380800    0.0847833100
  -0.0484820800   -0.0046836900   -0.0411756200
  -0.3047347900   -0.3727381000    0.3047178200
  -0.0232909500    0.0248033100    0.0242769500
  -0.0188859600    0.0180366800    0.0128971900
  -0.0260573700    0.0494400800    0.0514631700
  -0.0291946200   -0.0047037300    0.0057202900
   0.0015765300   -0.0242173800   -0.0119757000
  -0.3162296400    0.3121490200   -0.3575126800
  -0.0575980000    0.0583334800   -0.0111209000
   0.0041850800    0.0521321000   -0.0414800700
   0.3720684300    0.3048816800    0.3047130800
   0.0156387400    0.0034569200   -0.0154221400
  -0.0440583700   -0.0140905200    0.0842384400
   0.0009224100    0.0763846900    0.0584998200
   0.0259131400    0.0662223400    0.0511704900
  -0.0845599300   -0.0145377300    0.0442945800
  -0.0576391600   -0.0109341100    0.0592375200
  -0.0324598100   -0.0014071300    0.0267771500
   0.0183031700    0.0144326300    0.0143265400
   0.0260178700    0.0364024800   -0.0124439600
  -0.0144908200    0.0144208300   -0.0189433400
  -0.0453151300    0.0844784200   -0.0140755700
  -0.0148229800    0.0186643900    0.0183817100
  -0.0057456700   -0.0054633700   -0.0007233900
   0.0195643700   -0.0187534400   -0.0219797400
  -0.0939259900   -0.0289383100   -0.0279715000
   0.0084612400   -0.0093647700   -0.0246954200
   0.0204425600   -0.0156656300   -0.0152378100
  -0.1124155000   -0.0283177600   -0.0061950400
  -0.0849733400   -0.0783997500    0.0918104400
  -0.0056896900   -0.0010928900   -0.0056110200
   0.0003458800   -0.0074024500   -0.0071588500
  -0.0687049800   -0.1008578300   -0.0095501000
   0.0019404700   -0.0042813900   -0.0073625500
   0.1007705000    0.0698534200   -0.0100963100
   0.0244023300   -0.0059088900   -0.0064301700
  -0.0002744600   -0.0006638500    0.0018950700
   0.0198138100   -0.0343811000   -0.0204534400
   0.0071083200    0.0725877800   -0.0984962200
   0.0192624600   -0.0209647600   -0.0177546400
   0.0533517800    0.0157318700    0.0149374400
   0.1012650300   -0.0098192200    0.0693788700
   0.0031996300    0.0049815600   -0.0021232600
  -0.0180780600    0.0123541500   -0.0491843100
   0.0567959100   -0.0612011900   -0.0862287200
   0.0196260500   -0.0199620500   -0.0341803200
  -0.0690245000   -0.0107322400   -0.1018069600
   0.0890051600   -0.0596113300   -0.0587346200
   0.0083881600   -0.0253145300   -0.0086847700
   0.0032014200   -0.0026247700    0.0048327800
  -0.0889539000   -0.0123182300    0.0136361000
   0.0346864100   -0.0206050500   -0.0192700300
   0.0578890700   -0.0849412300   -0.0612306500
   0.2772736900   -0.2715089300   -0.2511822700

2    
  0.0000000000000000   0.0100000000000000   0.0000000000000000
   0.0087659100   -0.0050848200   -0.0044299900
  -0.0527465300   -0.4832569400   -0.0164730800
  -0.1002155000    0.0591792800   -0.0060267900
  -0.0438995200    0.0414150800    0.0416241500
   0.0126084700   -0.0551336800    0.0600488200
  -0.0489648200    0.0568786200    0.0560049800
   0.0419829000   -0.0056767700    0.0525606500
  -0.0043698300   -0.0202203200   -0.0161632400
   0.0134648300    0.0438837100    0.0839808700
  -0.0528576200   -0.0041710200   -0.0410313900
  -0.3049498300   -0.3721700400    0.3048097200
  -0.0240498000    0.0249128800    0.0251654100
  -0.0188065300    0.0172158500    0.0136873200
  -0.0326484300    0.0552651500    0.0590964500
  -0.0313164200   -0.0067252300    0.0070241300
   0.0077193600   -0.0310688000   -0.0036861900
  -0.2983516500    0.2898541700   -0.3798013700
  -0.0593644000    0.0593444100   -0.0115708200
   0.0053216300    0.0529669000   -0.0419865100
   0.3721668300    0.3054218800    0.3047135500
   0.0164986800    0.0047661100   -0.0156813400
  -0.0435074600   -0.0135558200    0.0843743400
   0.0061860300    0.0695995700    0.0510930000
   0.0191432800    0.0723074900    0.0441236600
  -0.0849240200   -0.0152302900    0.0431860800
  -0.0585539900   -0.0110177500    0.0584006700
  -0.0032431900    0.0277167300    0.0097109200
   0.0197674100    0.0159917700    0.0144084700
   0.0577696900    0.0678245200    0.0034275900
  -0.0141239600    0.0134117200   -0.0198245900
  -0.0435866800    0.0855258400   -0.0140062600
  -0.0135806800    0.0197794400    0.0185428500
  -0.0020982900   -0.0015666300   -0.0051360900
   0.0189679700   -0.0179936900   -0.0235402800
   0.0269554500    0.0911011400    0.0210062900
   0.0093379500   -0.0100359200   -0.0259383300
   0.0203023300   -0.0162210300   -0.0153804300
  -0.0333804500    0.0382687600    0.0010466100
  -0.0108382100   -0.0039066900    0.0932614300
  -0.0060876700   -0.0013128300   -0.0055243400
   0.0042784000   -0.0019836400   -0.0031978800
  -0.0699758300   -0.1020028000   -0.0123740400
   0.0073831900   -0.0003446600   -0.0031753200
   0.1009770200    0.0700311700   -0.0114438600
   0.0237934800   -0.0048145700   -0.0057539000
   0.0010315800   -0.0013712300    0.0025619700
   0.0201159700   -0.0349195100   -0.0188410900
   0.0083610600    0.0720557600   -0.0989064800
   0.0165317400   -0.0224401200   -0.0188608200
   0.0495517800    0.0149418300    0.0157793000
   0.0995748300   -0.0125811900    0.0704484300
   0.0016455200    0.0025144500   -0.0029830400
  -0.0132503600    0.0175381800   -0.0514607900
   0.0622893200   -0.0567039000   -0.0901350900
   0.0198208300   -0.0195742900   -0.0326402100
  -0.0700299700   -0.0125536700   -0.1011074300
   0.0874464600   -0.0607712300   -0.0580171700
   0.0076579700   -0.0261894600   -0.0087688400
   0.0023784400   -0.0034165700    0.0047943300
   0.0212915500    0.0979594000   -0.0220416600
   0.0344040900   -0.0197174800   -0.0179159800
   0.0573665900   -0.0841239400   -0.0617522600
   0.2568631000   -0.2498152500   -0.2793051000

2    
  0.0000000000000000  -0.0100000000000000   0.0000000000000000
   0.0047429200   -0.0083478700   -0.0089994000
  -0.0526395200    0.4008381500    0.0070025700
  -0.0687212400    0.0280505000   -0.0220328500
  -0.0428281400    0.0406355800    0.0404326800
  -0.0033963500   -0.0274079000    0.0452443000
  -0.0331421800    0.0300601600    0.0263252600
   0.0406233500   -0.0036940000    0.0529078300
  -0.0038398400   -0.0117226400   -0.0157795900
   0.0145666700    0.0431559100    0.0846658700
  -0.0525911000   -0.0052147600   -0.0415827600
  -0.3044881100   -0.3726284100    0.3046519900
  -0.0249050600    0.0240251000    0.0237875400
  -0.0181513300    0.0197196100    0.0132427900
  -0.0494618600    0.0265866400    0.0273282500
   0.0027939200   -0.0328605500    0.0217869300
   0.0243780100   -0.0008171200    0.0120211400
  -0.3109769300    0.3194909600   -0.3652208600
  -0.0584486000    0.0584812400   -0.0107802000
   0.0040085900    0.0524842900   -0.0406269200
   0.3726631300    0.3040445400    0.3047520200
   0.0154623500    0.0035042900   -0.0162668600
  -0.0435147500   -0.0145235300    0.0842317200
   0.0216867600    0.0989700300    0.0360732500
   0.0032744800    0.0456759600    0.0734030500
  -0.0837284000   -0.0128305200    0.0438716600
  -0.0592749700   -0.0113183300    0.0594007700
  -0.0334186500   -0.0005433300    0.0271598800
   0.0196586500    0.0127719700    0.0143505300
   0.0245691800    0.0374560800   -0.0128371400
  -0.0146693700    0.0153922700   -0.0196335100
  -0.0434283700    0.0830853200   -0.0140630100
  -0.0133833600    0.0171402600    0.0183782000
  -0.0063302400   -0.0048109100   -0.0006895200
   0.0161700400   -0.0171597300   -0.0208027300
  -0.0182883100   -0.1035354800   -0.0273013100
   0.0069241500   -0.0062076300   -0.0258713700
   0.0240877000   -0.0189420700   -0.0197559500
   0.0053666300   -0.1419421900    0.0306428600
   0.0306705900   -0.1949999400    0.0494941600
  -0.0023371500   -0.0045203600   -0.0008147800
   0.0000659600   -0.0086093100   -0.0073748000
  -0.0708206500   -0.0988701500   -0.0093519200
   0.0031724900   -0.0039719900   -0.0073192800
   0.0998715400    0.0707507800   -0.0102730100
   0.0280397400   -0.0113585300   -0.0104514900
   0.0052909500   -0.0044480600    0.0058428500
   0.0182481400   -0.0318013500   -0.0194838500
   0.0133525700    0.0687102800   -0.1019950800
   0.0186028800   -0.0218900900   -0.0162550800
   0.0519888700    0.0148371200    0.0140933300
   0.1012838900   -0.0090751700    0.0703295900
   0.0041922600    0.0058832200   -0.0033540500
  -0.0166455600    0.0122791100   -0.0500397300
   0.0567643300   -0.0622582200   -0.0853020300
   0.0185507200   -0.0187830900   -0.0340555200
  -0.0707682100   -0.0091315400   -0.0997080700
   0.0879559300   -0.0582774000   -0.0609633800
   0.0085804500   -0.0256457100   -0.0074824300
   0.0034855300   -0.0029347900    0.0036601300
  -0.0131537800   -0.0875667500    0.0144356100
   0.0323100700   -0.0186044400   -0.0204273600
   0.0616731500   -0.0913586100   -0.0572621700
   0.2682754400   -0.2754169200   -0.2453587700

2    
  0.0000000000000000   0.0000000000000000   0.0100000000000000
   0.0088999600   -0.0044768100   -0.0036474800
  -0.0579049000   -0.0530084800   -0.4393566200
  -0.0758225500    0.0351364400   -0.0269981800
  -0.0430418700    0.0416972700    0.0416765900
   0.0210353000   -0.0493494100    0.0659043700
  -0.0491336800    0.0577202800    0.0542761300
   0.0419645200   -0.0045029900    0.0532177100
  -0.0041698100   -0.0162365600   -0.0154143400
   0.0144801500    0.0437987600    0.0834627800
  -0.0527281900   -0.0047419200   -0.0407844600
  -0.3049748900   -0.3725038600    0.3042416100
  -0.0247344200    0.0250919200    0.0250481400
  -0.0177673200    0.0180921400    0.0139964700
  -0.0332117300    0.0567160200    0.0583581800
  -0.0232183700   -0.0112073300    0.0001934700
   0.0316535500   -0.0085390400    0.0188809900
  -0.3203842800    0.3110642600   -0.3573650400
  -0.0592580900    0.0583063500   -0.0102304400
   0.0044960600    0.0531944200   -0.0423033100
   0.3731919800    0.3051788300    0.3058160600
   0.0165341900    0.0038584300   -0.0171112400
  -0.0434640200   -0.0140380000    0.0847675900
  -0.0009191900    0.0765865400    0.0575368200
   0.0040996500    0.0441582100    0.0722637500
  -0.0850548300   -0.0139359300    0.0442895000
  -0.0585037200   -0.0118403900    0.0596928800
  -0.0107443500    0.0211134700    0.0044295800
   0.0196187000    0.0144953900    0.0152051000
   0.0332563800    0.0450843400   -0.0196456400
  -0.0148182000    0.0138328300   -0.0187457600
  -0.0436723400    0.0844875300   -0.0132371800
  -0.0134931500    0.0183842800    0.0138835200
  -0.0064025100   -0.0054175200    0.0002436200
   0.0172734500   -0.0190027700   -0.0239362600
   0.0287915400    0.0177285100    0.0942975200
   0.0068081900   -0.0083618700   -0.0276234100
   0.0199593100   -0.0153999100   -0.0140913500
   0.0044921000   -0.0671809500    0.1046796600
  -0.0097909600   -0.0745885100    0.1641108100
  -0.0021923000   -0.0048479300    0.0001330400
   0.0042639000   -0.0031838500   -0.0033966700
  -0.0720652200   -0.1018763200   -0.0108205900
   0.0072187600    0.0000577100   -0.0033938400
   0.0999136900    0.0699347200   -0.0114230000
   0.0240952800   -0.0057717600   -0.0067666000
   0.0051674300   -0.0047221300    0.0054931700
   0.0209043600   -0.0332546700   -0.0209185600
   0.0081903200    0.0722844400   -0.0991903600
   0.0177536900   -0.0232846700   -0.0194404300
   0.0505073400    0.0155979500    0.0136181600
   0.1021291600   -0.0113186500    0.0691664300
   0.0020553500    0.0047023700   -0.0050939500
  -0.0164461900    0.0124712200   -0.0506122900
   0.0562885500   -0.0605962100   -0.0875570600
   0.0199543400   -0.0184170900   -0.0341380100
  -0.0694929600   -0.0119942300   -0.1014377900
   0.0862213600   -0.0586085600   -0.0605767300
   0.0086856700   -0.0265141500   -0.0083932400
   0.0023289300   -0.0025404500    0.0039470300
  -0.0134938800   -0.0134739100    0.0868797000
   0.0334626700   -0.0175376300   -0.0207578200
   0.0613120900   -0.0904235500   -0.0583730300
   0.2698960400   -0.2780765900   -0.2469297100

2    
  0.0000000000000000   0.0000000000000000  -0.0100000000000000
   0.0045683600   -0.0089978400   -0.0098586800
  -0.0471291500   -0.0295245200    0.4303779200
  -0.0926657900    0.0517256400   -0.0011676600
  -0.0436736000    0.0403704600    0.0403869200
  -0.0113786000   -0.0333430500    0.0397372100
  -0.0329821200    0.0292883900    0.0279735400
   0.0406511700   -0.0048492400    0.0522503600
  -0.0040458600   -0.0157067800   -0.0165230000
   0.0135575000    0.0432317700    0.0851917600
  -0.0527249400   -0.0046428900   -0.0418275100
  -0.3044767800   -0.3723010600    0.3052474600
  -0.0242204400    0.0238328300    0.0238936700
  -0.0191889200    0.0188543700    0.0129268700
  -0.0489002500    0.0250578000    0.0281332400
  -0.0057481500   -0.0280459500    0.0284981000
   0.0000359700   -0.0234976800   -0.0108964700
  -0.2892928800    0.2984777300   -0.3873578200
  -0.0585479400    0.0594982400   -0.0121144800
   0.0048422000    0.0522622300   -0.0403198100
   0.3716323700    0.3042880600    0.3036466200
   0.0154193800    0.0044115500   -0.0148532500
  -0.0435553300   -0.0140413600    0.0838445100
   0.0292439400    0.0921630000    0.0292683400
   0.0183060000    0.0738905100    0.0453259000
  -0.0835901600   -0.0141343600    0.0427627900
  -0.0593244400   -0.0104884500    0.0581004000
  -0.0263862300    0.0056783900    0.0326209200
   0.0198180400    0.0142640200    0.0135543000
   0.0495191100    0.0605634000    0.0103773400
  -0.0139791900    0.0149512300   -0.0207025500
  -0.0433571700    0.0841419500   -0.0148277600
  -0.0134732200    0.0185325500    0.0230345500
  -0.0019885600   -0.0009245900   -0.0061310700
   0.0178475200   -0.0161153500   -0.0203684800
  -0.0203116100   -0.0303080900   -0.1007750100
   0.0094546600   -0.0078538600   -0.0241612600
   0.0243878700   -0.0197237500   -0.0209769900
  -0.0326043500   -0.0361501300   -0.0730463500
   0.0294615700   -0.1242287300   -0.0213064900
  -0.0061952300   -0.0010200000   -0.0064076200
   0.0001169100   -0.0073401800   -0.0071283600
  -0.0687154000   -0.0989464500   -0.0108508000
   0.0033399300   -0.0043772500   -0.0070996900
   0.1009305000    0.0708486500   -0.0103023200
   0.0277828900   -0.0104862100   -0.0094826500
   0.0011496800   -0.0010964000    0.0029112800
   0.0174505100   -0.0334747000   -0.0173858100
   0.0135291200    0.0684778600   -0.1017135900
   0.0173611300   -0.0210825400   -0.0157044200
   0.0510475700    0.0142426900    0.0162089100
   0.0987400000   -0.0103690200    0.0715734500
   0.0037937800    0.0037222200   -0.0012647400
  -0.0134448700    0.0173527800   -0.0509170200
   0.0627388700   -0.0584442700   -0.0878474000
   0.0184150100   -0.0199505300   -0.0325533200
  -0.0712947600   -0.0097400100   -0.0994094400
   0.0891646900   -0.0603966100   -0.0584347100
   0.0075516000   -0.0253256100   -0.0078597300
   0.0035331700   -0.0038049800    0.0045030200
   0.0216132100    0.0236501100   -0.0947076600
   0.0332671900   -0.0208173100   -0.0175566000
   0.0576870200   -0.0849745000   -0.0606820500
   0.2552375000   -0.2472541600   -0.2778268200

3    
  0.0100000000000000   0.0000000000000000   0.0000000000000000
   0.0061956600   -0.0054678300   -0.0080550300
  -0.0385283900   -0.0572024200    0.0037603900
  -0.5260424000    0.0341763400   -0.0043250800
  -0.0423006400    0.0410677600    0.0414886700
   0.0038202400   -0.0409767300    0.0522633400
  -0.0263393000    0.0348840500    0.0572726600
   0.0266657000    0.0030446200    0.0606634600
  -0.0031305200   -0.0165218100   -0.0160066800
   0.0151165300    0.0434889000    0.0844405100
  -0.0524951600   -0.0054229800   -0.0419045900
  -0.3084260900   -0.3735051600    0.3055809900
  -0.0103963400    0.0322075200    0.0396134700
  -0.0195859800    0.0180369900    0.0138997400
  -0.0408055300    0.0416199100    0.0441698300
  -0.0127288800   -0.0202924100    0.0145089800
   0.0008488800   -0.0236225100   -0.0030769600
  -0.3148548600    0.3117496600   -0.3780742000
  -0.0439975800    0.0510353000   -0.0251876100
   0.0051284900    0.0527910900   -0.0413758300
   0.3730482500    0.3063274000    0.3047818100
   0.0171872200    0.0042601500   -0.0157299100
  -0.0428508000   -0.0129869900    0.0844433400
   0.0127069200    0.0844756400    0.0431813300
   0.0258812700    0.0675224100    0.0426613800
  -0.0989603500   -0.0208638600    0.0505973100
  -0.0583137900   -0.0112607500    0.0578337700
  -0.0174238400    0.0134952700    0.0185144100
   0.0346656200    0.0301151700    0.0057211700
   0.0425185000    0.0525655500   -0.0048540200
  -0.0155749400    0.0148180700   -0.0194116800
  -0.0284081900    0.0987815700   -0.0060218500
   0.0009833200    0.0028333700    0.0104469600
  -0.0058889900   -0.0020975200   -0.0028133300
   0.0188810600   -0.0157796500   -0.0199027100
   0.0036810200   -0.0041525800   -0.0019425500
   0.1017064900    0.0127280300   -0.0068131800
   0.0235245900   -0.0194037300   -0.0157124900
  -0.0135907600   -0.0519684200    0.0125956600
   0.0983990600   -0.1154932900    0.0854155400
   0.0898389000   -0.0228016900   -0.0241985600
   0.0017835300   -0.0046540100   -0.0058507100
  -0.0689623000   -0.0975706600   -0.0095624100
   0.0036240500   -0.0022419100   -0.0064918600
   0.1037247000    0.0720507700   -0.0100265000
   0.0273409800   -0.0098795700   -0.0062615900
   0.0044973900   -0.0051431300    0.0024383300
   0.0206916100   -0.0313422700   -0.0213769100
   0.0144445900    0.0678302400   -0.0980317600
   0.0172429700   -0.0233402800   -0.0185968600
   0.0488105700    0.0140241400    0.0153007700
   0.0979840300   -0.0122179100    0.0696468300
   0.0022987700    0.0030463700   -0.0020195600
  -0.0149036300    0.0153067000   -0.0504416500
   0.0565664800   -0.0585867200   -0.0866731000
   0.0204318400   -0.0172158200   -0.0356397500
  -0.0705368200   -0.0121041100   -0.1011032700
   0.0851883200   -0.0598941100   -0.0586560600
   0.0064774000   -0.0260409600   -0.0091076200
   0.0025589700   -0.0037992300    0.0048723100
   0.0028933400    0.0053069000   -0.0017947500
   0.1326540100    0.0061543100   -0.0447567900
   0.0628893300   -0.0886065600   -0.0614976600
   0.2621454500   -0.2632866000   -0.2628179200

3    
 -0.0100000000000000   0.0000000000000000   0.0000000000000000
   0.0072605300   -0.0079802100   -0.0054096300
  -0.0667447800   -0.0257084200   -0.0130846200
   0.3573083900    0.0527691100   -0.0236202300
  -0.0444261600    0.0409930700    0.0405633900
   0.0055491800   -0.0416618400    0.0531830700
  -0.0555230200    0.0518172800    0.0250459100
   0.0560371500   -0.0125301800    0.0446702600
  -0.0050880800   -0.0154077500   -0.0159408500
   0.0129056000    0.0435381700    0.0842029900
  -0.0529481800   -0.0039581800   -0.0407093200
  -0.3009942700   -0.3713272400    0.3039125900
  -0.0387630800    0.0166616900    0.0090458300
  -0.0173740600    0.0189039100    0.0130327600
  -0.0412239000    0.0404274400    0.0425328600
  -0.0160721700   -0.0191237500    0.0142752800
   0.0311971000   -0.0082050900    0.0114077000
  -0.2944893200    0.2979378400   -0.3669958100
  -0.0740456100    0.0668610500    0.0031126800
   0.0042054000    0.0526608600   -0.0412334100
   0.3717908800    0.3031466000    0.3046777700
   0.0147605500    0.0040056200   -0.0162264300
  -0.0441650100   -0.0151043700    0.0841687800
   0.0153540900    0.0842013300    0.0438200000
  -0.0033249900    0.0503169900    0.0748255100
  -0.0697851400   -0.0073996900    0.0366481200
  -0.0595048300   -0.0110761900    0.0599708500
  -0.0195263600    0.0134756400    0.0184200400
   0.0049791900   -0.0010701700    0.0229848800
   0.0400786000    0.0529053700   -0.0045085400
  -0.0131966400    0.0139595700   -0.0200369200
  -0.0588466600    0.0695916400   -0.0221189500
  -0.0281563600    0.0343803200    0.0265414700
  -0.0024818200   -0.0042608200   -0.0030270600
   0.0162681800   -0.0193118400   -0.0244115600
   0.0068386500   -0.0063616900   -0.0023856400
  -0.0874117600   -0.0308502700   -0.0468421400
   0.0207966700   -0.0156873300   -0.0194261400
  -0.0162363700   -0.0496103800    0.0172306000
  -0.0749423100   -0.0872727200    0.0573100100
  -0.1001380900    0.0187723300    0.0197272600
   0.0025626100   -0.0058846800   -0.0047172300
  -0.0718139100   -0.1032768800   -0.0121116000
   0.0068895600   -0.0021067700   -0.0040513200