mesh: [     1,     1,     1 ]
nqpoint: 1      
reciprocal_lattice:
- [   0.14012298,   0.00000000,   0.00000000 ] # a*
- [   0.00000000,   0.14012298,   0.00000000 ] # b*
- [   0.00000000,   0.00000000,   0.14012298 ] # c*
natom:   63     
lattice:
- [     7.136588097000000,     0.000000000000000,     0.000000000000000 ] # a
- [     0.000000000000000,     7.136588097000000,     0.000000000000000 ] # b
- [     0.000000000000000,     0.000000000000000,     7.136588097000000 ] # c
points:
- symbol: C  # 1
  coordinates: [  0.000136466785222,  0.999863533214778,  0.999863533214778 ]
  mass: 12.010700
- symbol: C  # 2
  coordinates: [  0.623765506408326,  0.622850140061601,  0.127228412903783 ]
  mass: 12.010700
- symbol: C  # 3
  coordinates: [  0.375675786738590,  0.875542202623805,  0.124857598647409 ]
  mass: 12.010700
- symbol: C  # 4
  coordinates: [  0.126080092016608,  0.375525671089058,  0.375525705089053 ]
  mass: 12.010700
- symbol: C  # 5
  coordinates: [  0.872771587096217,  0.622850140061601,  0.376234560591676 ]
  mass: 12.010700
- symbol: C  # 6
  coordinates: [  0.624474328910942,  0.873919890983387,  0.375525705089053 ]
  mass: 12.010700
- symbol: C  # 7
  coordinates: [  0.377149893938402,  0.127228387903784,  0.376234493591674 ]
  mass: 12.010700
- symbol: C  # 8
  coordinates: [  0.125095821321459,  0.625086144294634,  0.625086211294636 ]
  mass: 12.010700
- symbol: C  # 9
  coordinates: [  0.875142468352593,  0.875542202623805,  0.624324247261413 ]
  mass: 12.010700
- symbol: C  # 10
  coordinates: [  0.623765506408326,  0.127228412903783,  0.622850140061601 ]
  mass: 12.010700
- symbol: C  # 11
  coordinates: [  0.366502588241666,  0.370151019554363,  0.633497445758330 ]
  mass: 12.010700
- symbol: C  # 12
  coordinates: [  0.125068558488088,  0.874931474511911,  0.874931474511911 ]
  mass: 12.010700
- symbol: C  # 13
  coordinates: [  0.874830860546311,  0.125169156453687,  0.874082055628101 ]
  mass: 12.010700
- symbol: C  # 14
  coordinates: [  0.624474328910942,  0.375525671089058,  0.873919957983389 ]
  mass: 12.010700
- symbol: C  # 15
  coordinates: [  0.876445257140809,  0.374669519474992,  0.123554792859188 ]
  mass: 12.010700
- symbol: C  # 16
  coordinates: [  0.374913822705366,  0.625086211294636,  0.874904228678545 ]
  mass: 12.010700
- symbol: C  # 17
  coordinates: [  0.366502588241666,  0.633497445758330,  0.370151053554366 ]
  mass: 12.010700
- symbol: C  # 18
  coordinates: [  0.124079935166996,  0.875920047832999,  0.376012190133238 ]
  mass: 12.010700
- symbol: C  # 19
  coordinates: [  0.872771654096212,  0.376234493591674,  0.622850140061601 ]
  mass: 12.010700
- symbol: C  # 20
  coordinates: [  0.629848980445637,  0.633497378758335,  0.633497445758330 ]
  mass: 12.010700
- symbol: C  # 21
  coordinates: [  0.374913822705366,  0.874904094678541,  0.625086211294636 ]
  mass: 12.010700
- symbol: C  # 22
  coordinates: [  0.124457780376197,  0.124857581647412,  0.624324314261415 ]
  mass: 12.010700
- symbol: C  # 23
  coordinates: [  0.875142468352593,  0.624324180261411,  0.875542269623807 ]
  mass: 12.010700
- symbol: C  # 24
  coordinates: [  0.623987843866765,  0.875920114833001,  0.875920114833001 ]
  mass: 12.010700
- symbol: C  # 25
  coordinates: [  0.375675786738590,  0.124857581647412,  0.875542202623805 ]
  mass: 12.010700
- symbol: C  # 26
  coordinates: [  0.124079952167001,  0.376012156133236,  0.875920114833001 ]
  mass: 12.010700
- symbol: C  # 27
  coordinates: [  0.874830860546311,  0.874081988628099,  0.125169189453686 ]
  mass: 12.010700
- symbol: C  # 28
  coordinates: [  0.625330480525008,  0.123554792859188,  0.123554809859201 ]
  mass: 12.010700
- symbol: C  # 29
  coordinates: [  0.377149893938402,  0.376234493591674,  0.127228412903783 ]
  mass: 12.010700
- symbol: C  # 30
  coordinates: [  0.876445257140809,  0.123554750859199,  0.374669586474994 ]
  mass: 12.010700
- symbol: C  # 31
  coordinates: [  0.124457763376192,  0.624324247261413,  0.124857598647409 ]
  mass: 12.010700
- symbol: C  # 32
  coordinates: [  0.125917994371896,  0.125169189453686,  0.125169206453691 ]
  mass: 12.010700
- symbol: C  # 33
  coordinates: [  0.251080242591286,  0.250416885891802,  0.000890956410728 ]
  mass: 12.010700
- symbol: C  # 34
  coordinates: [  0.750039329593349,  0.249960703406657,  0.998721311611014 ]
  mass: 12.010700
- symbol: C  # 35
  coordinates: [  0.499863855843444,  0.500136144156556,  0.000127424105564 ]
  mass: 12.010700
- symbol: C  # 36
  coordinates: [  0.250103430954375,  0.749896536045625,  0.000287563330211 ]
  mass: 12.010700
- symbol: C  # 37
  coordinates: [  0.001278688388986,  0.249960703406657,  0.249960736406656 ]
  mass: 12.010700
- symbol: C  # 38
  coordinates: [  0.749608611616573,  0.494310167509518,  0.250391454383433 ]
  mass: 12.010700
- symbol: C  # 39
  coordinates: [  0.498569946971351,  0.747991981309248,  0.252832674611618 ]
  mass: 12.010700
- symbol: C  # 40
  coordinates: [  0.251080242591286,  0.000890956410728,  0.250416885891802 ]
  mass: 12.010700
- symbol: C  # 41
  coordinates: [  0.999872575894436,  0.500136144156556,  0.500136211156558 ]
  mass: 12.010700
- symbol: C  # 42
  coordinates: [  0.747167358388381,  0.747991981309248,  0.501430120028644 ]
  mass: 12.010700
- symbol: C  # 43
  coordinates: [  0.499863855843444,  0.000127424105564,  0.500136144156556 ]
  mass: 12.010700
- symbol: C  # 44
  coordinates: [  0.252008018690752,  0.252832657611620,  0.501430120028644 ]
  mass: 12.010700
- symbol: C  # 45
  coordinates: [  0.999712436669789,  0.749896536045625,  0.749896536045625 ]
  mass: 12.010700
- symbol: C  # 46
  coordinates: [  0.749583147108197,  0.000890956410728,  0.748919724408715 ]
  mass: 12.010700
- symbol: C  # 47
  coordinates: [  0.999967056687787,  0.499959854779306,  0.000032943312213 ]
  mass: 12.010700
- symbol: C  # 48
  coordinates: [  0.498569946971351,  0.252832641611619,  0.747992047309246 ]
  mass: 12.010700
- symbol: C  # 49
  coordinates: [  0.750039329593349,  0.998721311611014,  0.249960736406656 ]
  mass: 12.010700
- symbol: C  # 50
  coordinates: [  0.505689832490482,  0.250391454383433,  0.250391421383434 ]
  mass: 12.010700
- symbol: C  # 51
  coordinates: [  0.252007985690753,  0.501430053028649,  0.252832707611617 ]
  mass: 12.010700
- symbol: C  # 52
  coordinates: [  0.999109043589272,  0.748919724408715,  0.250416918891808 ]
  mass: 12.010700
- symbol: C  # 53
  coordinates: [  0.749608611616573,  0.250391404383429,  0.494310234509520 ]
  mass: 12.010700
- symbol: C  # 54
  coordinates: [  0.250388929741938,  0.749611037258056,  0.499459475369235 ]
  mass: 12.010700
- symbol: C  # 55
  coordinates: [  0.999967056687787,  0.000032943312213,  0.499959854779306 ]
  mass: 12.010700
- symbol: C  # 56
  coordinates: [  0.747167358388381,  0.501430053028649,  0.747991981309248 ]
  mass: 12.010700
- symbol: C  # 57
  coordinates: [  0.500540658630761,  0.749611037258056,  0.749611037258056 ]
  mass: 12.010700
- symbol: C  # 58
  coordinates: [  0.250103463954375,  0.000287563330211,  0.749896602045624 ]
  mass: 12.010700
- symbol: C  # 59
  coordinates: [  0.999109043589272,  0.250416885891802,  0.748919724408715 ]
  mass: 12.010700
- symbol: C  # 60
  coordinates: [  0.749583147108197,  0.748919724408715,  0.000890956410728 ]
  mass: 12.010700
- symbol: C  # 61
  coordinates: [  0.500040145220694,  0.000032943312213,  0.000032943312213 ]
  mass: 12.010700
- symbol: C  # 62
  coordinates: [  0.250388929741938,  0.499459375369234,  0.749611103258061 ]
  mass: 12.010700
- symbol: N  # 63
  coordinates: [  0.636002766085966,  0.363997233914034,  0.363997233914034 ]
  mass: 14.006700

phonon:
- q-position: [    0.0000000,    0.0000000,    0.0000000 ]
  distance_from_gamma:  0.000000000
  weight: 1    
  band:
  - # 1
    frequency:    -0.0038715072
    eigenvector:
    - # atom 1
      - [ -0.00000501414116,  0.00000000000000 ]
      - [ -0.08897914397248,  0.00000000000000 ]
      - [  0.08897413559762,  0.00000000000000 ]
    - # atom 2
      - [ -0.00000434336778,  0.00000000000000 ]
      - [ -0.08896615072391,  0.00000000000000 ]
      - [  0.08896392841909,  0.00000000000000 ]
    - # atom 3
      - [ -0.00000593700227,  0.00000000000000 ]
      - [ -0.08897221754577,  0.00000000000000 ]
      - [  0.08896869582941,  0.00000000000000 ]
    - # atom 4
      - [ -0.00000501406055,  0.00000000000000 ]
      - [ -0.08897500581367,  0.00000000000000 ]
      - [  0.08896999749466,  0.00000000000000 ]
    - # atom 5
      - [ -0.00000216498827,  0.00000000000000 ]
      - [ -0.08896931873503,  0.00000000000000 ]
      - [  0.08897073014884,  0.00000000000000 ]
    - # atom 6
      - [ -0.00000658643001,  0.00000000000000 ]
      - [ -0.08897771366550,  0.00000000000000 ]
      - [  0.08897157010524,  0.00000000000000 ]
    - # atom 7
      - [ -0.00000184521945,  0.00000000000000 ]
      - [ -0.08897178495737,  0.00000000000000 ]
      - [  0.08897140080585,  0.00000000000000 ]
    - # atom 8
      - [ -0.00000501395679,  0.00000000000000 ]
      - [ -0.08897594533899,  0.00000000000000 ]
      - [  0.08897093696898,  0.00000000000000 ]
    - # atom 9
      - [ -0.00000406414190,  0.00000000000000 ]
      - [ -0.08897339707131,  0.00000000000000 ]
      - [  0.08897318278704,  0.00000000000000 ]
    - # atom 10
      - [ -0.00000568456846,  0.00000000000000 ]
      - [ -0.08896893654000,  0.00000000000000 ]
      - [  0.08896114272364,  0.00000000000000 ]
    - # atom 11
      - [  0.00000477165174,  0.00000000000000 ]
      - [ -0.08895969673598,  0.00000000000000 ]
      - [  0.08894829614290,  0.00000000000000 ]
    - # atom 12
      - [ -0.00000501407743,  0.00000000000000 ]
      - [ -0.08897801257528,  0.00000000000000 ]
      - [  0.08897300426415,  0.00000000000000 ]
    - # atom 13
      - [ -0.00000381625255,  0.00000000000000 ]
      - [ -0.08897868040163,  0.00000000000000 ]
      - [  0.08897250862696,  0.00000000000000 ]
    - # atom 14
      - [ -0.00000344147457,  0.00000000000000 ]
      - [ -0.08897657815852,  0.00000000000000 ]
      - [  0.08897270537113,  0.00000000000000 ]
    - # atom 15
      - [ -0.00000032048197,  0.00000000000000 ]
      - [ -0.08897390098526,  0.00000000000000 ]
      - [  0.08896458498297,  0.00000000000000 ]
    - # atom 16
      - [ -0.00000345864356,  0.00000000000000 ]
      - [ -0.08897750056874,  0.00000000000000 ]
      - [  0.08897086378001,  0.00000000000000 ]
    - # atom 17
      - [ -0.00001479757292,  0.00000000000000 ]
      - [ -0.08895330416567,  0.00000000000000 ]
      - [  0.08895468945666,  0.00000000000000 ]
    - # atom 18
      - [ -0.00000732940726,  0.00000000000000 ]
      - [ -0.08897102895174,  0.00000000000000 ]
      - [  0.08897309950251,  0.00000000000000 ]
    - # atom 19
      - [ -0.00000786230442,  0.00000000000000 ]
      - [ -0.08897573840759,  0.00000000000000 ]
      - [  0.08896431127018,  0.00000000000000 ]
    - # atom 20
      - [ -0.00000501304572,  0.00000000000000 ]
      - [ -0.08896308795122,  0.00000000000000 ]
      - [  0.08895808158201,  0.00000000000000 ]
    - # atom 21
      - [ -0.00000656936590,  0.00000000000000 ]
      - [ -0.08897587197067,  0.00000000000000 ]
      - [  0.08897249246158,  0.00000000000000 ]
    - # atom 22
      - [ -0.00000383415888,  0.00000000000000 ]
      - [ -0.08897465364419,  0.00000000000000 ]
      - [  0.08897225976824,  0.00000000000000 ]
    - # atom 23
      - [ -0.00000596358095,  0.00000000000000 ]
      - [ -0.08897819100431,  0.00000000000000 ]
      - [  0.08896838915285,  0.00000000000000 ]
    - # atom 24
      - [ -0.00000501408280,  0.00000000000000 ]
      - [ -0.08897334441422,  0.00000000000000 ]
      - [  0.08896833662664,  0.00000000000000 ]
    - # atom 25
      - [ -0.00000409112063,  0.00000000000000 ]
      - [ -0.08897370400492,  0.00000000000000 ]
      - [  0.08896720942796,  0.00000000000000 ]
    - # atom 26
      - [ -0.00000269809096,  0.00000000000000 ]
      - [ -0.08897810781898,  0.00000000000000 ]
      - [  0.08896602077283,  0.00000000000000 ]
    - # atom 27
      - [ -0.00000621191006,  0.00000000000000 ]
      - [ -0.08897751691034,  0.00000000000000 ]
      - [  0.08897367218782,  0.00000000000000 ]
    - # atom 28
      - [ -0.00000501384583,  0.00000000000000 ]
      - [ -0.08897428620564,  0.00000000000000 ]
      - [  0.08896927863266,  0.00000000000000 ]
    - # atom 29
      - [ -0.00000818177711,  0.00000000000000 ]
      - [ -0.08897640895127,  0.00000000000000 ]
      - [  0.08896677731787,  0.00000000000000 ]
    - # atom 30
      - [ -0.00000970698821,  0.00000000000000 ]
      - [ -0.08896959334909,  0.00000000000000 ]
      - [  0.08896889290576,  0.00000000000000 ]
    - # atom 31
      - [ -0.00000619340932,  0.00000000000000 ]
      - [ -0.08897726814148,  0.00000000000000 ]
      - [  0.08896964562918,  0.00000000000000 ]
    - # atom 32
      - [ -0.00000501404942,  0.00000000000000 ]
      - [ -0.08897748267410,  0.00000000000000 ]
      - [  0.08897247425786,  0.00000000000000 ]
    - # atom 33
      - [ -0.00000552974986,  0.00000000000000 ]
      - [ -0.08897768451308,  0.00000000000000 ]
      - [  0.08896855297580,  0.00000000000000 ]
    - # atom 34
      - [ -0.00000287767825,  0.00000000000000 ]
      - [ -0.08897777023348,  0.00000000000000 ]
      - [  0.08897162603323,  0.00000000000000 ]
    - # atom 35
      - [ -0.00000434445435,  0.00000000000000 ]
      - [ -0.08897583730081,  0.00000000000000 ]
      - [  0.08897318762993,  0.00000000000000 ]
    - # atom 36
      - [ -0.00000470829073,  0.00000000000000 ]
      - [ -0.08897708750850,  0.00000000000000 ]
      - [  0.08897122538061,  0.00000000000000 ]
    - # atom 37
      - [ -0.00000501399970,  0.00000000000000 ]
      - [ -0.08897563408867,  0.00000000000000 ]
      - [  0.08897062567077,  0.00000000000000 ]
    - # atom 38
      - [  0.00000219623241,  0.00000000000000 ]
      - [ -0.08895379067576,  0.00000000000000 ]
      - [  0.08895293355980,  0.00000000000000 ]
    - # atom 39
      - [ -0.00000558633450,  0.00000000000000 ]
      - [ -0.08896843870847,  0.00000000000000 ]
      - [  0.08896381545999,  0.00000000000000 ]
    - # atom 40
      - [ -0.00000449802145,  0.00000000000000 ]
      - [ -0.08897356104086,  0.00000000000000 ]
      - [  0.08897267603376,  0.00000000000000 ]
    - # atom 41
      - [ -0.00000501408775,  0.00000000000000 ]
      - [ -0.08897516787575,  0.00000000000000 ]
      - [  0.08897015964932,  0.00000000000000 ]
    - # atom 42
      - [ -0.00000400762093,  0.00000000000000 ]
      - [ -0.08897082521511,  0.00000000000000 ]
      - [  0.08896940260595,  0.00000000000000 ]
    - # atom 43
      - [ -0.00000568341761,  0.00000000000000 ]
      - [ -0.08897819595140,  0.00000000000000 ]
      - [  0.08897082918752,  0.00000000000000 ]
    - # atom 44
      - [ -0.00000262689683,  0.00000000000000 ]
      - [ -0.08896982924911,  0.00000000000000 ]
      - [  0.08896883008135,  0.00000000000000 ]
    - # atom 45
      - [ -0.00000501397718,  0.00000000000000 ]
      - [ -0.08897678180838,  0.00000000000000 ]
      - [  0.08897177353210,  0.00000000000000 ]
    - # atom 46
      - [ -0.00000335733653,  0.00000000000000 ]
      - [ -0.08897360169181,  0.00000000000000 ]
      - [  0.08896934416454,  0.00000000000000 ]
    - # atom 47
      - [ -0.00000233849545,  0.00000000000000 ]
      - [ -0.08897854266309,  0.00000000000000 ]
      - [  0.08896506846867,  0.00000000000000 ]
    - # atom 48
      - [ -0.00000444138204,  0.00000000000000 ]
      - [ -0.08896882336702,  0.00000000000000 ]
      - [  0.08896343066734,  0.00000000000000 ]
    - # atom 49
      - [ -0.00000715032891,  0.00000000000000 ]
      - [ -0.08897663426689,  0.00000000000000 ]
      - [  0.08897276217662,  0.00000000000000 ]
    - # atom 50
      - [ -0.00000501271264,  0.00000000000000 ]
      - [ -0.08896515032595,  0.00000000000000 ]
      - [  0.08896014355092,  0.00000000000000 ]
    - # atom 51
      - [ -0.00000740031345,  0.00000000000000 ]
      - [ -0.08897383822210,  0.00000000000000 ]
      - [  0.08896482151209,  0.00000000000000 ]
    - # atom 52
      - [ -0.00000505448215,  0.00000000000000 ]
      - [ -0.08897486814845,  0.00000000000000 ]
      - [  0.08897433294281,  0.00000000000000 ]
    - # atom 53
      - [ -0.00001222253147,  0.00000000000000 ]
      - [ -0.08895794155319,  0.00000000000000 ]
      - [  0.08894878372834,  0.00000000000000 ]
    - # atom 54
      - [ -0.00000830831068,  0.00000000000000 ]
      - [ -0.08897110182482,  0.00000000000000 ]
      - [  0.08897169739072,  0.00000000000000 ]
    - # atom 55
      - [ -0.00000768891566,  0.00000000000000 ]
      - [ -0.08897007663451,  0.00000000000000 ]
      - [  0.08897353432209,  0.00000000000000 ]
    - # atom 56
      - [ -0.00000601955512,  0.00000000000000 ]
      - [ -0.08897441064995,  0.00000000000000 ]
      - [  0.08896581757732,  0.00000000000000 ]
    - # atom 57
      - [ -0.00000501400374,  0.00000000000000 ]
      - [ -0.08897439607636,  0.00000000000000 ]
      - [  0.08896938833978,  0.00000000000000 ]
    - # atom 58
      - [ -0.00000531974265,  0.00000000000000 ]
      - [ -0.08897623359160,  0.00000000000000 ]
      - [  0.08897207928389,  0.00000000000000 ]
    - # atom 59
      - [ -0.00000497317337,  0.00000000000000 ]
      - [ -0.08897934114215,  0.00000000000000 ]
      - [  0.08896986007233,  0.00000000000000 ]
    - # atom 60
      - [ -0.00000667087466,  0.00000000000000 ]
      - [ -0.08897435232783,  0.00000000000000 ]
      - [  0.08896859363362,  0.00000000000000 ]
    - # atom 61
      - [ -0.00000501410728,  0.00000000000000 ]
      - [ -0.08897275161857,  0.00000000000000 ]
      - [  0.08896774390482,  0.00000000000000 ]
    - # atom 62
      - [ -0.00000171925084,  0.00000000000000 ]
      - [ -0.08897670562836,  0.00000000000000 ]
      - [  0.08896609353148,  0.00000000000000 ]
    - # atom 63
      - [ -0.00000541178381,  0.00000000000000 ]
      - [ -0.09603557678035,  0.00000000000000 ]
      - [  0.09603017121853,  0.00000000000000 ]
  - # 2
    frequency:    -0.0038715071
    eigenvector:
    - # atom 1
      - [ -0.10274142103736,  0.00000000000000 ]
      - [ -0.05136629904804,  0.00000000000000 ]
      - [ -0.05137498046611,  0.00000000000000 ]
    - # atom 2
      - [ -0.10273787589864,  0.00000000000000 ]
      - [ -0.05136245655250,  0.00000000000000 ]
      - [ -0.05137237612587,  0.00000000000000 ]
    - # atom 3
      - [ -0.10273978782952,  0.00000000000000 ]
      - [ -0.05136366260237,  0.00000000000000 ]
      - [ -0.05137293613427,  0.00000000000000 ]
    - # atom 4
      - [ -0.10273976950657,  0.00000000000000 ]
      - [ -0.05136572584103,  0.00000000000000 ]
      - [ -0.05137440685535,  0.00000000000000 ]
    - # atom 5
      - [ -0.10273127946739,  0.00000000000000 ]
      - [ -0.05135696877803,  0.00000000000000 ]
      - [ -0.05137378847441,  0.00000000000000 ]
    - # atom 6
      - [ -0.10273755052788,  0.00000000000000 ]
      - [ -0.05136547335394,  0.00000000000000 ]
      - [ -0.05137168332076,  0.00000000000000 ]
    - # atom 7
      - [ -0.10272824729896,  0.00000000000000 ]
      - [ -0.05135876154423,  0.00000000000000 ]
      - [ -0.05137262699326,  0.00000000000000 ]
    - # atom 8
      - [ -0.10273764296006,  0.00000000000000 ]
      - [ -0.05136624845119,  0.00000000000000 ]
      - [ -0.05137492955717,  0.00000000000000 ]
    - # atom 9
      - [ -0.10273568798504,  0.00000000000000 ]
      - [ -0.05136161937402,  0.00000000000000 ]
      - [ -0.05137336454923,  0.00000000000000 ]
    - # atom 10
      - [ -0.10273787583321,  0.00000000000000 ]
      - [ -0.05136369570372,  0.00000000000000 ]
      - [ -0.05137113670284,  0.00000000000000 ]
    - # atom 11
      - [ -0.10271723361380,  0.00000000000000 ]
      - [ -0.05135507244492,  0.00000000000000 ]
      - [ -0.05137135899877,  0.00000000000000 ]
    - # atom 12
      - [ -0.10274011464923,  0.00000000000000 ]
      - [ -0.05136564590912,  0.00000000000000 ]
      - [ -0.05137432721681,  0.00000000000000 ]
    - # atom 13
      - [ -0.10274019433641,  0.00000000000000 ]
      - [ -0.05136464834099,  0.00000000000000 ]
      - [ -0.05137404103044,  0.00000000000000 ]
    - # atom 14
      - [ -0.10273755068130,  0.00000000000000 ]
      - [ -0.05136300215302,  0.00000000000000 ]
      - [ -0.05137415463246,  0.00000000000000 ]
    - # atom 15
      - [ -0.10273310280616,  0.00000000000000 ]
      - [ -0.05136327234870,  0.00000000000000 ]
      - [ -0.05137488525581,  0.00000000000000 ]
    - # atom 16
      - [ -0.10273862563919,  0.00000000000000 ]
      - [ -0.05136355441073,  0.00000000000000 ]
      - [ -0.05137309126992,  0.00000000000000 ]
    - # atom 17
      - [ -0.10271723265912,  0.00000000000000 ]
      - [ -0.05136268010186,  0.00000000000000 ]
      - [ -0.05136375196558,  0.00000000000000 ]
    - # atom 18
      - [ -0.10273338756102,  0.00000000000000 ]
      - [ -0.05136428818632,  0.00000000000000 ]
      - [ -0.05137438220856,  0.00000000000000 ]
    - # atom 19
      - [ -0.10273127918944,  0.00000000000000 ]
      - [ -0.05136510738861,  0.00000000000000 ]
      - [ -0.05136564923750,  0.00000000000000 ]
    - # atom 20
      - [ -0.10271896593626,  0.00000000000000 ]
      - [ -0.05134573217884,  0.00000000000000 ]
      - [ -0.05135441203043,  0.00000000000000 ]
    - # atom 21
      - [ -0.10273862548743,  0.00000000000000 ]
      - [ -0.05136441017109,  0.00000000000000 ]
      - [ -0.05137223566847,  0.00000000000000 ]
    - # atom 22
      - [ -0.10273410434891,  0.00000000000000 ]
      - [ -0.05136261023817,  0.00000000000000 ]
      - [ -0.05137496308460,  0.00000000000000 ]
    - # atom 23
      - [ -0.10273568789238,  0.00000000000000 ]
      - [ -0.05136468322414,  0.00000000000000 ]
      - [ -0.05137030023139,  0.00000000000000 ]
    - # atom 24
      - [ -0.10274022462442,  0.00000000000000 ]
      - [ -0.05136027723578,  0.00000000000000 ]
      - [ -0.05136895808802,  0.00000000000000 ]
    - # atom 25
      - [ -0.10273978791957,  0.00000000000000 ]
      - [ -0.05136425524697,  0.00000000000000 ]
      - [ -0.05137234334465,  0.00000000000000 ]
    - # atom 26
      - [ -0.10273338778696,  0.00000000000000 ]
      - [ -0.05136570089158,  0.00000000000000 ]
      - [ -0.05137296881262,  0.00000000000000 ]
    - # atom 27
      - [ -0.10274019421954,  0.00000000000000 ]
      - [ -0.05136535977112,  0.00000000000000 ]
      - [ -0.05137332971384,  0.00000000000000 ]
    - # atom 28
      - [ -0.10273536712800,  0.00000000000000 ]
      - [ -0.05135807558777,  0.00000000000000 ]
      - [ -0.05136675653191,  0.00000000000000 ]
    - # atom 29
      - [ -0.10272824698983,  0.00000000000000 ]
      - [ -0.05136394584203,  0.00000000000000 ]
      - [ -0.05136744224432,  0.00000000000000 ]
    - # atom 30
      - [ -0.10273310234824,  0.00000000000000 ]
      - [ -0.05136620476959,  0.00000000000000 ]
      - [ -0.05137195325523,  0.00000000000000 ]
    - # atom 31
      - [ -0.10273410423381,  0.00000000000000 ]
      - [ -0.05136628184955,  0.00000000000000 ]
      - [ -0.05137129121813,  0.00000000000000 ]
    - # atom 32
      - [ -0.10273954231858,  0.00000000000000 ]
      - [ -0.05136672309968,  0.00000000000000 ]
      - [ -0.05137540435566,  0.00000000000000 ]
    - # atom 33
      - [ -0.10273618605115,  0.00000000000000 ]
      - [ -0.05136736954221,  0.00000000000000 ]
      - [ -0.05137180392105,  0.00000000000000 ]
    - # atom 34
      - [ -0.10273860165920,  0.00000000000000 ]
      - [ -0.05136303926307,  0.00000000000000 ]
      - [ -0.05137353140735,  0.00000000000000 ]
    - # atom 35
      - [ -0.10273721647866,  0.00000000000000 ]
      - [ -0.05136361712769,  0.00000000000000 ]
      - [ -0.05137443309512,  0.00000000000000 ]
    - # atom 36
      - [ -0.10273887002759,  0.00000000000000 ]
      - [ -0.05136475887018,  0.00000000000000 ]
      - [ -0.05137330006309,  0.00000000000000 ]
    - # atom 37
      - [ -0.10273852315837,  0.00000000000000 ]
      - [ -0.05136673959130,  0.00000000000000 ]
      - [ -0.05137542066691,  0.00000000000000 ]
    - # atom 38
      - [ -0.10272110149495,  0.00000000000000 ]
      - [ -0.05135166297296,  0.00000000000000 ]
      - [ -0.05137106300460,  0.00000000000000 ]
    - # atom 39
      - [ -0.10273562510774,  0.00000000000000 ]
      - [ -0.05136287491802,  0.00000000000000 ]
      - [ -0.05137018308653,  0.00000000000000 ]
    - # atom 40
      - [ -0.10273618610149,  0.00000000000000 ]
      - [ -0.05136312304769,  0.00000000000000 ]
      - [ -0.05137605081787,  0.00000000000000 ]
    - # atom 41
      - [ -0.10274032638765,  0.00000000000000 ]
      - [ -0.05136477673655,  0.00000000000000 ]
      - [ -0.05137345776668,  0.00000000000000 ]
    - # atom 42
      - [ -0.10273008494078,  0.00000000000000 ]
      - [ -0.05135874090153,  0.00000000000000 ]
      - [ -0.05137158651040,  0.00000000000000 ]
    - # atom 43
      - [ -0.10273721641334,  0.00000000000000 ]
      - [ -0.05136575176954,  0.00000000000000 ]
      - [ -0.05137229822314,  0.00000000000000 ]
    - # atom 44
      - [ -0.10273043793396,  0.00000000000000 ]
      - [ -0.05135976024022,  0.00000000000000 ]
      - [ -0.05137257804039,  0.00000000000000 ]
    - # atom 45
      - [ -0.10273806051276,  0.00000000000000 ]
      - [ -0.05136528841799,  0.00000000000000 ]
      - [ -0.05137396960559,  0.00000000000000 ]
    - # atom 46
      - [ -0.10274069235510,  0.00000000000000 ]
      - [ -0.05136305263025,  0.00000000000000 ]
      - [ -0.05137280950764,  0.00000000000000 ]
    - # atom 47
      - [ -0.10273249575738,  0.00000000000000 ]
      - [ -0.05136595192124,  0.00000000000000 ]
      - [ -0.05137283412504,  0.00000000000000 ]
    - # atom 48
      - [ -0.10273562516360,  0.00000000000000 ]
      - [ -0.05136150267541,  0.00000000000000 ]
      - [ -0.05137155529160,  0.00000000000000 ]
    - # atom 49
      - [ -0.10273860145076,  0.00000000000000 ]
      - [ -0.05136485023414,  0.00000000000000 ]
      - [ -0.05137172054712,  0.00000000000000 ]
    - # atom 50
      - [ -0.10271214638739,  0.00000000000000 ]
      - [ -0.05134989628770,  0.00000000000000 ]
      - [ -0.05135857634049,  0.00000000000000 ]
    - # atom 51
      - [ -0.10273043770109,  0.00000000000000 ]
      - [ -0.05136389713998,  0.00000000000000 ]
      - [ -0.05136844074949,  0.00000000000000 ]
    - # atom 52
      - [ -0.10273499807060,  0.00000000000000 ]
      - [ -0.05136323502890,  0.00000000000000 ]
      - [ -0.05137318129051,  0.00000000000000 ]
    - # atom 53
      - [ -0.10272110079153,  0.00000000000000 ]
      - [ -0.05136238365522,  0.00000000000000 ]
      - [ -0.05136034191739,  0.00000000000000 ]
    - # atom 54
      - [ -0.10273403674510,  0.00000000000000 ]
      - [ -0.05136546052736,  0.00000000000000 ]
      - [ -0.05137357260978,  0.00000000000000 ]
    - # atom 55
      - [ -0.10273249549636,  0.00000000000000 ]
      - [ -0.05136415359166,  0.00000000000000 ]
      - [ -0.05137463328064,  0.00000000000000 ]
    - # atom 56
      - [ -0.10273008484263,  0.00000000000000 ]
      - [ -0.05136290555414,  0.00000000000000 ]
      - [ -0.05136742150798,  0.00000000000000 ]
    - # atom 57
      - [ -0.10273860555766,  0.00000000000000 ]
      - [ -0.05135975407343,  0.00000000000000 ]
      - [ -0.05136843502828,  0.00000000000000 ]
    - # atom 58
      - [ -0.10273886999776,  0.00000000000000 ]
      - [ -0.05136461892898,  0.00000000000000 ]
      - [ -0.05137344008761,  0.00000000000000 ]
    - # atom 59
      - [ -0.10273499807457,  0.00000000000000 ]
      - [ -0.05136449985319,  0.00000000000000 ]
      - [ -0.05137191602979,  0.00000000000000 ]
    - # atom 60
      - [ -0.10274069219345,  0.00000000000000 ]
      - [ -0.05136412855708,  0.00000000000000 ]
      - [ -0.05137173350757,  0.00000000000000 ]
    - # atom 61
      - [ -0.10274072672439,  0.00000000000000 ]
      - [ -0.05135951986132,  0.00000000000000 ]
      - [ -0.05136820065573,  0.00000000000000 ]
    - # atom 62
      - [ -0.10273403706655,  0.00000000000000 ]
      - [ -0.05136489142961,  0.00000000000000 ]
      - [ -0.05137414116076,  0.00000000000000 ]
    - # atom 63
      - [ -0.11088926221176,  0.00000000000000 ]
      - [ -0.05543986980597,  0.00000000000000 ]
      - [ -0.05544923969822,  0.00000000000000 ]
  - # 3
    frequency:    -0.0037329906
    eigenvector:
    - # atom 1
      - [  0.07264854995855,  0.00000000000000 ]
      - [ -0.07264865238275,  0.00000000000000 ]
      - [ -0.07264864768019,  0.00000000000000 ]
    - # atom 2
      - [  0.07264524382966,  0.00000000000000 ]
      - [ -0.07264133864394,  0.00000000000000 ]
      - [ -0.07264665965232,  0.00000000000000 ]
    - # atom 3
      - [  0.07264730187473,  0.00000000000000 ]
      - [ -0.07264450962789,  0.00000000000000 ]
      - [ -0.07264696478187,  0.00000000000000 ]
    - # atom 4
      - [  0.07264698931876,  0.00000000000000 ]
      - [ -0.07264674700446,  0.00000000000000 ]
      - [ -0.07264674230212,  0.00000000000000 ]
    - # atom 5
      - [  0.07264656193876,  0.00000000000000 ]
      - [ -0.07264133864046,  0.00000000000000 ]
      - [ -0.07264534154830,  0.00000000000000 ]
    - # atom 6
      - [  0.07264664458321,  0.00000000000000 ]
      - [ -0.07264709174131,  0.00000000000000 ]
      - [ -0.07264674230031,  0.00000000000000 ]
    - # atom 7
      - [  0.07264123623122,  0.00000000000000 ]
      - [ -0.07264666435121,  0.00000000000000 ]
      - [ -0.07264534154753,  0.00000000000000 ]
    - # atom 8
      - [  0.07264641404175,  0.00000000000000 ]
      - [ -0.07264675908137,  0.00000000000000 ]
      - [ -0.07264675437898,  0.00000000000000 ]
    - # atom 9
      - [  0.07264686706516,  0.00000000000000 ]
      - [ -0.07264450962659,  0.00000000000000 ]
      - [ -0.07264739959432,  0.00000000000000 ]
    - # atom 10