
     Program PWSCF v.6.1 (svn rev. 13369) starts on  2Aug2019 at  8:38:39 

     This program is part of the open-source Quantum ESPRESSO suite
     for quantum simulation of materials; please cite
         "P. Giannozzi et al., J. Phys.:Condens. Matter 21 395502 (2009);
          URL http://www.quantum-espresso.org", 
     in publications or presentations arising from this work. More details at
     http://www.quantum-espresso.org/quote

     Parallel version (MPI), running on   288 processors
     K-points division:     npool     =       8
     R & G space division:  proc/nbgrp/npool/nimage =      36
     Reading input from relax.in

     Current dimensions of program PWSCF are:
     Max number of different atomic species (ntypx) = 10
     Max number of k-points (npk) =  40000
     Max angular momentum in pseudopotentials (lmaxx) =  3

     Subspace diagonalization in iterative solution of the eigenvalue problem:
     one sub-group per band group will be used
     scalapack distributed-memory algorithm (size of sub-group:  4*  4 procs)

 
     Parallelization info
     --------------------
     sticks:   dense  smooth     PW     G-vecs:    dense   smooth      PW
     Min         160     160     43                 9196     9196    1295
     Max         161     161     44                 9203     9203    1300
     Sum        5761    5761   1565               331093   331093   46681
 


     bravais-lattice index     =            0
     lattice parameter (alat)  =      13.4862  a.u.
     unit-cell volume          =    2452.8359 (a.u.)^3
     number of atoms/cell      =           63
     number of atomic types    =            2
     number of electrons       =       254.00
     number of Kohn-Sham states=          152
     kinetic-energy cutoff     =     100.0000  Ry
     charge density cutoff     =     400.0000  Ry
     convergence threshold     =      1.0E-09
     mixing beta               =       0.5000
     number of iterations used =            8  plain     mixing
     Exchange-correlation      = PBE ( 1  4  3  4 0 0)
     nstep                     =           50


     celldm(1)=  13.486197  celldm(2)=   0.000000  celldm(3)=   0.000000
     celldm(4)=   0.000000  celldm(5)=   0.000000  celldm(6)=   0.000000

     crystal axes: (cart. coord. in units of alat)
               a(1) = (   1.000000   0.000000   0.000000 )  
               a(2) = (   0.000000   1.000000   0.000000 )  
               a(3) = (   0.000000   0.000000   1.000000 )  

     reciprocal axes: (cart. coord. in units 2 pi/alat)
               b(1) = (  1.000000  0.000000  0.000000 )  
               b(2) = (  0.000000  1.000000  0.000000 )  
               b(3) = (  0.000000  0.000000  1.000000 )  


     PseudoPot. # 1 for C  read from file:
     /g/g13/smart8/Pseudo/C_ONCV_PBE-1.0.upf
     MD5 check sum: 72b63e32b2fd29504de26a4901699f60
     Pseudo is Norm-conserving, Zval =  4.0
     Generated using ONCVPSP code by D. R. Hamann
     Using radial grid of 1248 points,  4 beta functions with: 
                l(1) =   0
                l(2) =   0
                l(3) =   1
                l(4) =   1

     PseudoPot. # 2 for N  read from file:
     /g/g13/smart8/Pseudo/N_ONCV_PBE-1.0.upf
     MD5 check sum: 09890da6b2972017450f7114a6086fad
     Pseudo is Norm-conserving, Zval =  5.0
     Generated using ONCVPSP code by D. R. Hamann
     Using radial grid of 1058 points,  4 beta functions with: 
                l(1) =   0
                l(2) =   0
                l(3) =   1
                l(4) =   1

     atomic species   valence    mass     pseudopotential
        C              4.00    12.01110     C ( 1.00)
        N              5.00    14.00670     N ( 1.00)

     Starting magnetic structure 
     atomic species   magnetization
        C            0.000
        N            1.000

      6 Sym. Ops. (no inversion) found


                                    s                        frac. trans.

      isym =  1     identity                                     

 cryst.   s( 1) = (     1          0          0      )
                  (     0          1          0      )
                  (     0          0          1      )

 cart.    s( 1) = (  1.0000000  0.0000000  0.0000000 )
                  (  0.0000000  1.0000000  0.0000000 )
                  (  0.0000000  0.0000000  1.0000000 )


      isym =  2     120 deg rotation - cart. axis [-1,1,1]       

 cryst.   s( 2) = (     0          0         -1      )
                  (    -1          0          0      )
                  (     0          1          0      )

 cart.    s( 2) = (  0.0000000 -1.0000000  0.0000000 )
                  (  0.0000000  0.0000000  1.0000000 )
                  ( -1.0000000  0.0000000  0.0000000 )


      isym =  3     120 deg rotation - cart. axis [1,-1,-1]      

 cryst.   s( 3) = (     0         -1          0      )
                  (     0          0          1      )
                  (    -1          0          0      )

 cart.    s( 3) = (  0.0000000  0.0000000 -1.0000000 )
                  ( -1.0000000  0.0000000  0.0000000 )
                  (  0.0000000  1.0000000  0.0000000 )


      isym =  4     inv. 180 deg rotation - cart. axis [1,1,0]   

 cryst.   s( 4) = (     0         -1          0      )
                  (    -1          0          0      )
                  (     0          0          1      )

 cart.    s( 4) = (  0.0000000 -1.0000000  0.0000000 )
                  ( -1.0000000  0.0000000  0.0000000 )
                  (  0.0000000  0.0000000  1.0000000 )


      isym =  5     inv. 180 deg rotation - cart. axis [1,0,1]   

 cryst.   s( 5) = (     0          0         -1      )
                  (     0          1          0      )
                  (    -1          0          0      )

 cart.    s( 5) = (  0.0000000  0.0000000 -1.0000000 )
                  (  0.0000000  1.0000000  0.0000000 )
                  ( -1.0000000  0.0000000  0.0000000 )


      isym =  6     inv. 180 deg rotation - cart. axis [0,1,-1]  

 cryst.   s( 6) = (     1          0          0      )
                  (     0          0          1      )
                  (     0          1          0      )

 cart.    s( 6) = (  1.0000000  0.0000000  0.0000000 )
                  (  0.0000000  0.0000000  1.0000000 )
                  (  0.0000000  1.0000000  0.0000000 )


   Cartesian axes

     site n.     atom                  positions (alat units)
         1           C   tau(   1) = (   0.0001362  -0.0001362  -0.0001362  )
         2           C   tau(   2) = (   0.7499676   0.2500325  -0.0013000  )
         3           C   tau(   3) = (   0.4998651   0.5001349   0.0001122  )
         4           C   tau(   4) = (   0.2501607   0.7498393   0.0001583  )
         5           C   tau(   5) = (   0.0013000   0.2500325   0.2500325  )
         6           C   tau(   6) = (   0.7496124   0.4943770   0.2503877  )
         7           C   tau(   7) = (   0.4984909   0.7481000   0.2526997  )
         8           C   tau(   8) = (   0.2510721   0.0009678   0.2504043  )
         9           C   tau(   9) = (  -0.0001122   0.5001349   0.5001350  )
        10           C   tau(  10) = (   0.7473003   0.7481000   0.5015091  )
        11           C   tau(  11) = (   0.4998651   0.0001122   0.5001349  )
        12           C   tau(  12) = (   0.2519000   0.2526997   0.5015091  )
        13           C   tau(  13) = (  -0.0001583   0.7498393   0.7498393  )
        14           C   tau(  14) = (   0.7495957   0.0009678   0.7489279  )
        15           C   tau(  15) = (   0.4984909   0.2526997   0.7481001  )
        16           C   tau(  16) = (   0.2504215   0.4992390   0.7495785  )
        17           C   tau(  17) = (   0.7499676  -0.0013000   0.2500325  )
        18           C   tau(  18) = (   0.5056230   0.2503877   0.2503877  )
        19           C   tau(  19) = (   0.2518999   0.5015091   0.2526998  )
        20           C   tau(  20) = (  -0.0009678   0.7489279   0.2504044  )
        21           C   tau(  21) = (   0.7496124   0.2503877   0.4943771  )
        22           C   tau(  22) = (   0.2504215   0.7495784   0.4992391  )
        23           C   tau(  23) = (  -0.0000386   0.0000386   0.4999672  )
        24           C   tau(  24) = (   0.7473003   0.5015091   0.7481000  )
        25           C   tau(  25) = (   0.5007611   0.7495784   0.7495784  )
        26           C   tau(  26) = (   0.2501607   0.0001583   0.7498394  )
        27           C   tau(  27) = (  -0.0009678   0.2504043   0.7489279  )
        28           C   tau(  28) = (   0.7495957   0.7489279   0.0009678  )
        29           C   tau(  29) = (   0.5000328   0.0000386   0.0000386  )
        30           C   tau(  30) = (   0.2510721   0.2504043   0.0009678  )
        31           C   tau(  31) = (  -0.0000386   0.4999672   0.0000386  )
        32           C   tau(  32) = (   0.1259164   0.1252516   0.1252516  )
        33           C   tau(  33) = (   0.8764465   0.3747508   0.1235536  )
        34           C   tau(  34) = (   0.6237121   0.6228769   0.1272087  )
        35           C   tau(  35) = (   0.3756712   0.8756450   0.1247392  )
        36           C   tau(  36) = (   0.1261110   0.3755800   0.3755800  )
        37           C   tau(  37) = (   0.8727913   0.6228769   0.3762880  )
        38           C   tau(  38) = (   0.6244200   0.8738889   0.3755800  )
        39           C   tau(  39) = (   0.3771232   0.1272086   0.3762879  )
        40           C   tau(  40) = (   0.1251949   0.6249905   0.6249906  )
        41           C   tau(  41) = (   0.8752609   0.8756450   0.6243288  )
        42           C   tau(  42) = (   0.6237121   0.1272087   0.6228769  )
        43           C   tau(  43) = (   0.3661907   0.3696872   0.6338093  )
        44           C   tau(  44) = (   0.1251559   0.8748441   0.8748441  )
        45           C   tau(  45) = (   0.8747485   0.1252516   0.8740836  )
        46           C   tau(  46) = (   0.6244200   0.3755800   0.8738890  )
        47           C   tau(  47) = (   0.3750094   0.6249906   0.8748052  )
        48           C   tau(  48) = (   0.8764465   0.1235535   0.3747508  )
        49           C   tau(  49) = (   0.3661907   0.6338093   0.3696873  )
        50           C   tau(  50) = (   0.1239838   0.8760162   0.3759929  )
        51           C   tau(  51) = (   0.8727914   0.3762879   0.6228769  )
        52           C   tau(  52) = (   0.6303128   0.6338092   0.6338093  )
        53           C   tau(  53) = (   0.3750094   0.8748050   0.6249906  )
        54           C   tau(  54) = (   0.1243550   0.1247391   0.6243289  )
        55           C   tau(  55) = (   0.8752609   0.6243287   0.8756451  )
        56           C   tau(  56) = (   0.6240071   0.8760163   0.8760163  )
        57           C   tau(  57) = (   0.3756712   0.1247391   0.8756450  )
        58           C   tau(  58) = (   0.1239838   0.3759929   0.8760163  )
        59           C   tau(  59) = (   0.8747485   0.8740836   0.1252516  )
        60           C   tau(  60) = (   0.6252492   0.1235536   0.1235536  )
        61           C   tau(  61) = (   0.3771232   0.3762879   0.1272087  )
        62           C   tau(  62) = (   0.1243549   0.6243288   0.1247392  )
        63           N   tau(  63) = (   0.6362864   0.3637136   0.3637136  )

   Crystallographic axes

     site n.     atom                  positions (cryst. coord.)
         1           C   tau(   1) = (  0.0001362 -0.0001362 -0.0001362  )
         2           C   tau(   2) = (  0.7499676  0.2500325 -0.0013000  )
         3           C   tau(   3) = (  0.4998651  0.5001349  0.0001122  )
         4           C   tau(   4) = (  0.2501607  0.7498393  0.0001583  )
         5           C   tau(   5) = (  0.0013000  0.2500325  0.2500325  )
         6           C   tau(   6) = (  0.7496124  0.4943770  0.2503877  )
         7           C   tau(   7) = (  0.4984909  0.7481000  0.2526997  )
         8           C   tau(   8) = (  0.2510721  0.0009678  0.2504043  )
         9           C   tau(   9) = ( -0.0001122  0.5001349  0.5001350  )
        10           C   tau(  10) = (  0.7473003  0.7481000  0.5015091  )
        11           C   tau(  11) = (  0.4998651  0.0001122  0.5001349  )
        12           C   tau(  12) = (  0.2519000  0.2526997  0.5015091  )
        13           C   tau(  13) = ( -0.0001583  0.7498393  0.7498393  )
        14           C   tau(  14) = (  0.7495957  0.0009678  0.7489279  )
        15           C   tau(  15) = (  0.4984909  0.2526997  0.7481001  )
        16           C   tau(  16) = (  0.2504215  0.4992390  0.7495785  )
        17           C   tau(  17) = (  0.7499676 -0.0013000  0.2500325  )
        18           C   tau(  18) = (  0.5056230  0.2503877  0.2503877  )
        19           C   tau(  19) = (  0.2518999  0.5015091  0.2526998  )
        20           C   tau(  20) = ( -0.0009678  0.7489279  0.2504044  )
        21           C   tau(  21) = (  0.7496124  0.2503877  0.4943771  )
        22           C   tau(  22) = (  0.2504215  0.7495784  0.4992391  )
        23           C   tau(  23) = ( -0.0000386  0.0000386  0.4999672  )
        24           C   tau(  24) = (  0.7473003  0.5015091  0.7481000  )
        25           C   tau(  25) = (  0.5007611  0.7495784  0.7495784  )
        26           C   tau(  26) = (  0.2501607  0.0001583  0.7498394  )
        27           C   tau(  27) = ( -0.0009678  0.2504043  0.7489279  )
        28           C   tau(  28) = (  0.7495957  0.7489279  0.0009678  )
        29           C   tau(  29) = (  0.5000328  0.0000386  0.0000386  )
        30           C   tau(  30) = (  0.2510721  0.2504043  0.0009678  )
        31           C   tau(  31) = ( -0.0000386  0.4999672  0.0000386  )
        32           C   tau(  32) = (  0.1259164  0.1252516  0.1252516  )
        33           C   tau(  33) = (  0.8764465  0.3747508  0.1235536  )
        34           C   tau(  34) = (  0.6237121  0.6228769  0.1272087  )
        35           C   tau(  35) = (  0.3756712  0.8756450  0.1247392  )
        36           C   tau(  36) = (  0.1261110  0.3755800  0.3755800  )
        37           C   tau(  37) = (  0.8727913  0.6228769  0.3762880  )
        38           C   tau(  38) = (  0.6244200  0.8738889  0.3755800  )
        39           C   tau(  39) = (  0.3771232  0.1272086  0.3762879  )
        40           C   tau(  40) = (  0.1251949  0.6249905  0.6249906  )
        41           C   tau(  41) = (  0.8752609  0.8756450  0.6243288  )
        42           C   tau(  42) = (  0.6237121  0.1272087  0.6228769  )
        43           C   tau(  43) = (  0.3661907  0.3696872  0.6338093  )
        44           C   tau(  44) = (  0.1251559  0.8748441  0.8748441  )
        45           C   tau(  45) = (  0.8747485  0.1252516  0.8740836  )
        46           C   tau(  46) = (  0.6244200  0.3755800  0.8738890  )
        47           C   tau(  47) = (  0.3750094  0.6249906  0.8748052  )
        48           C   tau(  48) = (  0.8764465  0.1235535  0.3747508  )
        49           C   tau(  49) = (  0.3661907  0.6338093  0.3696873  )
        50           C   tau(  50) = (  0.1239838  0.8760162  0.3759929  )
        51           C   tau(  51) = (  0.8727914  0.3762879  0.6228769  )
        52           C   tau(  52) = (  0.6303128  0.6338092  0.6338093  )
        53           C   tau(  53) = (  0.3750094  0.8748050  0.6249906  )
        54           C   tau(  54) = (  0.1243550  0.1247391  0.6243289  )
        55           C   tau(  55) = (  0.8752609  0.6243287  0.8756451  )
        56           C   tau(  56) = (  0.6240071  0.8760163  0.8760163  )
        57           C   tau(  57) = (  0.3756712  0.1247391  0.8756450  )
        58           C   tau(  58) = (  0.1239838  0.3759929  0.8760163  )
        59           C   tau(  59) = (  0.8747485  0.8740836  0.1252516  )
        60           C   tau(  60) = (  0.6252492  0.1235536  0.1235536  )
        61           C   tau(  61) = (  0.3771232  0.3762879  0.1272087  )
        62           C   tau(  62) = (  0.1243549  0.6243288  0.1247392  )
        63           N   tau(  63) = (  0.6362864  0.3637136  0.3637136  )

     number of k points=     4  Marzari-Vanderbilt smearing, width (Ry)=  0.0010
                       cart. coord. in units 2pi/alat
        k(    1) = (   0.0000000   0.0000000   0.0000000), wk =   0.1250000
        k(    2) = (   0.0000000   0.0000000  -0.5000000), wk =   0.3750000
        k(    3) = (   0.0000000  -0.5000000  -0.5000000), wk =   0.3750000
        k(    4) = (  -0.5000000  -0.5000000  -0.5000000), wk =   0.1250000

                       cryst. coord.
        k(    1) = (   0.0000000   0.0000000   0.0000000), wk =   0.1250000
        k(    2) = (   0.0000000   0.0000000  -0.5000000), wk =   0.3750000
        k(    3) = (   0.0000000  -0.5000000  -0.5000000), wk =   0.3750000
        k(    4) = (  -0.5000000  -0.5000000  -0.5000000), wk =   0.1250000

     Dense  grid:   331093 G-vectors     FFT dimensions: (  90,  90,  90)

     Estimated max dynamical RAM per process >      33.28MB

     Estimated total allocated dynamical RAM >    9585.01MB
     Generating pointlists ...
     new r_m :   0.0853 (alat units)  1.1503 (a.u.) for type    1
     new r_m :   0.0853 (alat units)  1.1503 (a.u.) for type    2

     Initial potential from superposition of free atoms

     starting charge  252.99722, renormalised to  254.00000
     Starting wfc are  252 randomized atomic wfcs

     total cpu time spent up to now is        2.1 secs

     per-process dynamical memory:    66.3 Mb

     Self-consistent Calculation

     iteration #  1     ecut=   100.00 Ry     beta=0.50
     Davidson diagonalization with overlap
     ethr =  1.00E-02,  avg # of iterations =  3.0

     total cpu time spent up to now is        3.2 secs

     total energy              =    -723.97570613 Ry
     Harris-Foulkes estimate   =    -725.50475761 Ry
     estimated scf accuracy    <       4.47024129 Ry

     total magnetization       =     1.35 Bohr mag/cell
     absolute magnetization    =     2.39 Bohr mag/cell

     iteration #  2     ecut=   100.00 Ry     beta=0.50
     Davidson diagonalization with overlap
     ethr =  1.76E-03,  avg # of iterations =  4.5

     total cpu time spent up to now is        4.5 secs

     total energy              =    -724.34288185 Ry
     Harris-Foulkes estimate   =    -724.93462012 Ry
     estimated scf accuracy    <       1.88181680 Ry

     total magnetization       =     0.50 Bohr mag/cell
     absolute magnetization    =     1.35 Bohr mag/cell

     iteration #  3     ecut=   100.00 Ry     beta=0.50
     Davidson diagonalization with overlap
     ethr =  7.41E-04,  avg # of iterations =  7.0

     total cpu time spent up to now is        5.9 secs

     total energy              =    -724.72981171 Ry
     Harris-Foulkes estimate   =    -724.73019502 Ry
     estimated scf accuracy    <       0.30602923 Ry

     total magnetization       =     0.46 Bohr mag/cell
     absolute magnetization    =     1.13 Bohr mag/cell

     iteration #  4     ecut=   100.00 Ry     beta=0.50
     Davidson diagonalization with overlap
     ethr =  1.20E-04,  avg # of iterations =  6.9

     total cpu time spent up to now is        7.5 secs

     total energy              =    -724.77621342 Ry
     Harris-Foulkes estimate   =    -724.78606235 Ry
     estimated scf accuracy    <       0.06230511 Ry

     total magnetization       =     0.50 Bohr mag/cell
     absolute magnetization    =     0.88 Bohr mag/cell

     iteration #  5     ecut=   100.00 Ry     beta=0.50
     Davidson diagonalization with overlap
     ethr =  2.45E-05,  avg # of iterations =  5.1

     total cpu time spent up to now is        8.9 secs

     total energy              =    -724.79266548 Ry
     Harris-Foulkes estimate   =    -724.78852293 Ry
     estimated scf accuracy    <       0.01196411 Ry

     total magnetization       =     0.42 Bohr mag/cell
     absolute magnetization    =     0.71 Bohr mag/cell

     iteration #  6     ecut=   100.00 Ry     beta=0.50
     Davidson diagonalization with overlap
     ethr =  4.71E-06,  avg # of iterations =  8.0

     total cpu time spent up to now is       11.3 secs

     total energy              =    -724.79760263 Ry
     Harris-Foulkes estimate   =    -724.79585519 Ry
     estimated scf accuracy    <       0.00267153 Ry

     total magnetization       =     0.65 Bohr mag/cell
     absolute magnetization    =     0.83 Bohr mag/cell

     iteration #  7     ecut=   100.00 Ry     beta=0.50
     Davidson diagonalization with overlap
     ethr =  1.05E-06,  avg # of iterations =  5.8

     total cpu time spent up to now is       12.7 secs

     total energy              =    -724.80117017 Ry
     Harris-Foulkes estimate   =    -724.79947705 Ry
     estimated scf accuracy    <       0.00393800 Ry

     total magnetization       =     1.54 Bohr mag/cell
     absolute magnetization    =     1.63 Bohr mag/cell

     iteration #  8     ecut=   100.00 Ry     beta=0.50
     Davidson diagonalization with overlap
     ethr =  1.05E-06,  avg # of iterations =  1.4

     total cpu time spent up to now is       13.5 secs

     total energy              =    -724.81051684 Ry
     Harris-Foulkes estimate   =    -724.80114081 Ry
     estimated scf accuracy    <       0.00315769 Ry

     total magnetization       =     1.50 Bohr mag/cell
     absolute magnetization    =     1.59 Bohr mag/cell

     iteration #  9     ecut=   100.00 Ry     beta=0.50
     Davidson diagonalization with overlap
     ethr =  1.05E-06,  avg # of iterations =  4.8

     total cpu time spent up to now is       14.6 secs

     total energy              =    -724.82045834 Ry
     Harris-Foulkes estimate   =    -724.82031071 Ry
     estimated scf accuracy    <       0.00186422 Ry

     total magnetization       =     2.00 Bohr mag/cell
     absolute magnetization    =     2.09 Bohr mag/cell

     iteration # 10     ecut=   100.00 Ry     beta=0.50
     Davidson diagonalization with overlap
     ethr =  7.34E-07,  avg # of iterations =  1.1

     total cpu time spent up to now is       15.3 secs

     total energy              =    -724.82131731 Ry
     Harris-Foulkes estimate   =    -724.82046572 Ry
     estimated scf accuracy    <       0.00182925 Ry

     total magnetization       =     2.00 Bohr mag/cell
     absolute magnetization    =     2.09 Bohr mag/cell

     iteration # 11     ecut=   100.00 Ry     beta=0.50
     Davidson diagonalization with overlap
     ethr =  7.20E-07,  avg # of iterations =  1.5

     total cpu time spent up to now is       16.0 secs

     total energy              =    -724.82586475 Ry
     Harris-Foulkes estimate   =    -724.82133437 Ry
     estimated scf accuracy    <       0.00162710 Ry

     total magnetization       =     2.00 Bohr mag/cell
     absolute magnetization    =     2.10 Bohr mag/cell

     iteration # 12     ecut=   100.00 Ry     beta=0.50
     Davidson diagonalization with overlap
     ethr =  6.41E-07,  avg # of iterations =  3.9

     total cpu time spent up to now is       17.0 secs

     total energy              =    -724.82767941 Ry
     Harris-Foulkes estimate   =    -724.82637967 Ry
     estimated scf accuracy    <       0.00056488 Ry

     total magnetization       =     2.00 Bohr mag/cell
     absolute magnetization    =     2.18 Bohr mag/cell

     iteration # 13     ecut=   100.00 Ry     beta=0.50
     Davidson diagonalization with overlap
     ethr =  2.22E-07,  avg # of iterations =  4.2

     total cpu time spent up to now is       18.0 secs

     total energy              =    -724.82813175 Ry
     Harris-Foulkes estimate   =    -724.82784524 Ry
     estimated scf accuracy    <       0.00016576 Ry

     total magnetization       =     2.00 Bohr mag/cell
     absolute magnetization    =     2.22 Bohr mag/cell

     iteration # 14     ecut=   100.00 Ry     beta=0.50
     Davidson diagonalization with overlap
     ethr =  6.53E-08,  avg # of iterations =  4.2

     total cpu time spent up to now is       18.9 secs

     total energy              =    -724.82825024 Ry
     Harris-Foulkes estimate   =    -724.82816571 Ry
     estimated scf accuracy    <       0.00005544 Ry

     total magnetization       =     2.00 Bohr mag/cell
     absolute magnetization    =     2.23 Bohr mag/cell

     iteration # 15     ecut=   100.00 Ry     beta=0.50
     Davidson diagonalization with overlap
     ethr =  2.18E-08,  avg # of iterations =  4.4

     total cpu time spent up to now is       20.0 secs

     total energy              =    -724.82827090 Ry
     Harris-Foulkes estimate   =    -724.82826694 Ry
     estimated scf accuracy    <       0.00000552 Ry

     total magnetization       =     2.00 Bohr mag/cell
     absolute magnetization    =     2.24 Bohr mag/cell

     iteration # 16     ecut=   100.00 Ry     beta=0.50
     Davidson diagonalization with overlap
     ethr =  2.17E-09,  avg # of iterations =  3.0

     total cpu time spent up to now is       21.1 secs

     total energy              =    -724.82827729 Ry
     Harris-Foulkes estimate   =    -724.82827243 Ry
     estimated scf accuracy    <       0.00000157 Ry

     total magnetization       =     2.00 Bohr mag/cell
     absolute magnetization    =     2.24 Bohr mag/cell

     iteration # 17     ecut=   100.00 Ry     beta=0.50
     Davidson diagonalization with overlap
     ethr =  6.19E-10,  avg # of iterations =  5.0

     total cpu time spent up to now is       22.4 secs

     total energy              =    -724.82827919 Ry
     Harris-Foulkes estimate   =    -724.82827912 Ry
     estimated scf accuracy    <       0.00000004 Ry

     total magnetization       =     2.00 Bohr mag/cell
     absolute magnetization    =     2.24 Bohr mag/cell

     iteration # 18     ecut=   100.00 Ry     beta=0.50
     Davidson diagonalization with overlap
     ethr =  1.44E-11,  avg # of iterations =  4.1

     total cpu time spent up to now is       23.6 secs

     total energy              =    -724.82827923 Ry
     Harris-Foulkes estimate   =    -724.82827920 Ry
     estimated scf accuracy    <       0.00000002 Ry

     total magnetization       =     2.00 Bohr mag/cell
     absolute magnetization    =     2.24 Bohr mag/cell

     iteration # 19     ecut=   100.00 Ry     beta=0.50
     Davidson diagonalization with overlap
     ethr =  6.16E-12,  avg # of iterations =  3.0

     total cpu time spent up to now is       24.7 secs

     total energy              =    -724.82827924 Ry
     Harris-Foulkes estimate   =    -724.82827924 Ry
     estimated scf accuracy    <          2.7E-09 Ry

     total magnetization       =     2.00 Bohr mag/cell
     absolute magnetization    =     2.24 Bohr mag/cell

     iteration # 20     ecut=   100.00 Ry     beta=0.50
     Davidson diagonalization with overlap
     ethr =  1.08E-12,  avg # of iterations =  3.0
 
     Magnetic moment per site:
     atom:    1    charge:    1.8130    magn:   -0.0002    constr:    0.0000
     atom:    2    charge:    1.8197    magn:   -0.0010    constr:    0.0000
     atom:    3    charge:    1.8218    magn:   -0.0014    constr:    0.0000
     atom:    4    charge:    1.8187    magn:   -0.0015    constr:    0.0000
     atom:    5    charge:    1.8197    magn:   -0.0010    constr:    0.0000
     atom:    6    charge:    1.7962    magn:    0.0010    constr:    0.0000
     atom:    7    charge:    1.8209    magn:   -0.0033    constr:    0.0000
     atom:    8    charge:    1.8130    magn:   -0.0015    constr:    0.0000
     atom:    9    charge:    1.8218    magn:   -0.0014    constr:    0.0000
     atom:   10    charge:    1.8209    magn:   -0.0033    constr:    0.0000
     atom:   11    charge:    1.8218    magn:   -0.0014    constr:    0.0000
     atom:   12    charge:    1.8209    magn:   -0.0033    constr:    0.0000
     atom:   13    charge:    1.8187    magn:   -0.0015    constr:    0.0000
     atom:   14    charge:    1.8130    magn:   -0.0015    constr:    0.0000
     atom:   15    charge:    1.8209    magn:   -0.0033    constr:    0.0000
     atom:   16    charge:    1.8290    magn:   -0.0079    constr:    0.0000
     atom:   17    charge:    1.8197    magn:   -0.0010    constr:    0.0000
     atom:   18    charge:    1.7962    magn:    0.0010    constr:    0.0000
     atom:   19    charge:    1.8209    magn:   -0.0033    constr:    0.0000
     atom:   20    charge:    1.8130    magn:   -0.0015    constr:    0.0000
     atom:   21    charge:    1.7962    magn:    0.0010    constr:    0.0000
     atom:   22    charge:    1.8290    magn:   -0.0079    constr:    0.0000
     atom:   23    charge:    1.8329    magn:    0.0075    constr:    0.0000
     atom:   24    charge:    1.8209    magn:   -0.0033    constr:    0.0000
     atom:   25    charge:    1.8290    magn:   -0.0079    constr:    0.0000
     atom:   26    charge:    1.8187    magn:   -0.0015    constr:    0.0000
     atom:   27    charge:    1.8130    magn:   -0.0015    constr:    0.0000
     atom:   28    charge:    1.8130    magn:   -0.0015    constr:    0.0000
     atom:   29    charge:    1.8329    magn:    0.0075    constr:    0.0000
     atom:   30    charge:    1.8130    magn:   -0.0015    constr:    0.0000
     atom:   31    charge:    1.8329    magn:    0.0075    constr:    0.0000
     atom:   32    charge:    1.8212    magn:    0.0029    constr:    0.0000
     atom:   33    charge:    1.8282    magn:    0.0017    constr:    0.0000
     atom:   34    charge:    1.8129    magn:    0.0052    constr:    0.0000
     atom:   35    charge:    1.8169    magn:    0.0191    constr:    0.0000
     atom:   36    charge:    1.8192    magn:    0.0063    constr:    0.0000
     atom:   37    charge:    1.8129    magn:    0.0052    constr:    0.0000
     atom:   38    charge:    1.8192    magn:    0.0063    constr:    0.0000
     atom:   39    charge:    1.8129    magn:    0.0052    constr:    0.0000
     atom:   40    charge:    1.8176    magn:    0.0076    constr:    0.0000
     atom:   41    charge:    1.8169    magn:    0.0191    constr:    0.0000
     atom:   42    charge:    1.8129    magn:    0.0052    constr:    0.0000
     atom:   43    charge:    1.8187    magn:    0.2520    constr:    0.0000
     atom:   44    charge:    1.8194    magn:    0.0035    constr:    0.0000
     atom:   45    charge:    1.8212    magn:    0.0029    constr:    0.0000
     atom:   46    charge:    1.8192    magn:    0.0063    constr:    0.0000
     atom:   47    charge:    1.8176    magn:    0.0076    constr:    0.0000
     atom:   48    charge:    1.8282    magn:    0.0017    constr:    0.0000
     atom:   49    charge:    1.8187    magn:    0.2520    constr:    0.0000
     atom:   50    charge:    1.8160    magn:    0.0169    constr:    0.0000
     atom:   51    charge:    1.8129    magn:    0.0052    constr:    0.0000
     atom:   52    charge:    1.8187    magn:    0.2520    constr:    0.0000
     atom:   53    charge:    1.8176    magn:    0.0076    constr:    0.0000
     atom:   54    charge:    1.8169    magn:    0.0191    constr:    0.0000
     atom:   55    charge:    1.8169    magn:    0.0191    constr:    0.0000
     atom:   56    charge:    1.8160    magn:    0.0169    constr:    0.0000
     atom:   57    charge:    1.8169    magn:    0.0191    constr:    0.0000
     atom:   58    charge:    1.8160    magn:    0.0169    constr:    0.0000
     atom:   59    charge:    1.8212    magn:    0.0029    constr:    0.0000
     atom:   60    charge:    1.8282    magn:    0.0017    constr:    0.0000
     atom:   61    charge:    1.8129    magn:    0.0052    constr:    0.0000
     atom:   62    charge:    1.8169    magn:    0.0191    constr:    0.0000
     atom:   63    charge:    2.9119    magn:    0.0022    constr:    0.0000

     total cpu time spent up to now is       25.7 secs

     End of self-consistent calculation

 ------ SPIN UP ------------


          k = 0.0000 0.0000 0.0000 ( 41395 PWs)   bands (ev):

    -8.5723  -6.9981  -6.2799  -6.2799  -6.1717  -6.1717  -5.8936  -4.9477
    -4.1382  -4.1382  -4.1102  -4.1102  -4.0392  -4.0392  -4.0073  -3.9408
    -3.8827  -3.8827  -3.3746  -2.9717  -2.6913  -2.6913  -2.1309  -0.3862
    -0.3862  -0.3572  -0.3213  -0.1177   0.1637   0.1637   0.2661   0.2661
     0.3466   0.5792   0.8022   0.8022   0.9601   0.9601   0.9844   1.0114
     1.0114   1.0472   1.2719   1.2719   2.9947   3.8745   3.8745   4.0077
     4.2105   4.2111   4.2111   4.2131   4.2478   4.2478   4.3910   4.3910
     4.4602   4.4602   4.5747   4.6296   4.6348   4.6348   4.6377   4.7242
     4.7242   4.8617   4.9172   4.9172   5.0186   5.1935   5.1935   5.2617
     5.3207   5.3207   5.3607   5.3827   5.3827   5.9755   5.9755   6.0070
     6.5808   6.5808   6.6973   6.9583   6.9772   6.9772   7.4090   8.2778
     8.2778   8.3578   8.4366   8.4366   8.6113   8.6113   8.7721   8.7760
     8.7863   8.7863   8.8287   8.8287   8.8607   9.2250   9.2250   9.2335
     9.6629   9.6629   9.8682   9.8682   9.8698   9.8878   9.9133   9.9406
     9.9406   9.9453   9.9618   9.9618  10.0723  10.0723  10.1926  10.1926
    10.2643  10.7877  12.1223  12.3725  12.3725  13.6914  14.6922  14.6922
    17.3104  17.3250  17.3250  17.4966  17.5016  17.5016  17.8060  17.8702
    17.8702  17.9495  17.9495  18.2951  18.8555  18.8555  18.8963  20.6225
    20.7556  20.7556  20.8043  20.8850  20.8851  20.9664  20.9664  21.0015

     occupation numbers 
     1.0000   1.0000   1.0000   1.0000   1.0000   1.0000   1.0000   1.0000
     1.0000   1.0000   1.0000   1.0000   1.0000   1.0000   1.0000   1.0000
     1.0000   1.0000   1.0000   1.0000   1.0000   1.0000   1.0000   1.0000
     1.0000   1.0000   1.0000   1.0000   1.0000   1.0000   1.0000   1.0000
     1.0000   1.0000   1.0000   1.0000   1.0000   1.0000   1.0000   1.0000
     1.0000   1.0000   1.0000   1.0000   1.0000   1.0000   1.0000   1.0000
     1.0000   1.0000   1.0000   1.0000   1.0000   1.0000   1.0000   1.0000
     1.0000   1.0000   1.0000   1.0000   1.0000   1.0000   1.0000   1.0000
     1.0000   1.0000   1.0000   1.0000   1.0000   1.0000   1.0000   1.0000
     1.0000   1.0000   1.0000   1.0000   1.0000   1.0000   1.0000   1.0000
     1.0000   1.0000   1.0000   1.0000   1.0000   1.0000   1.0000   1.0000
     1.0000   1.0000   1.0000   1.0000   1.0000   1.0000   1.0000   1.0000
     1.0000   1.0000   1.0000   1.0000   1.0000   1.0000   1.0000   1.0000
     1.0000   1.0000   1.0000   1.0000   1.0000   1.0000   1.0000   1.0000
     1.0000   1.0000   1.0000   1.0000   1.0000   1.0000   1.0000   1.0000
     1.0000   1.0000   1.0000   1.0000   1.0000   1.0000   1.0000   1.0000
     0.0000   0.0000   0.0000   0.0000   0.0000   0.0000   0.0000   0.0000
     0.0000   0.0000   0.0000   0.0000   0.0000   0.0000   0.0000   0.0000
     0.0000   0.0000   0.0000   0.0000   0.0000   0.0000   0.0000   0.0000

          k = 0.0000 0.0000-0.5000 ( 41426 PWs)   bands (ev):

    -8.1645  -7.8560  -6.5531  -5.7758  -5.6989  -5.6813  -5.6734  -5.6503
    -5.5268  -5.1883  -4.2395  -3.6658  -3.6468  -3.6116  -3.5828  -3.5144
    -3.4410  -3.3871  -3.3807  -2.8033  -1.9744  -1.6266  -1.6130  -1.5899
    -1.5364  -1.4605  -1.3916  -0.7886   0.2742   0.3709   0.4362   0.4607
     0.5263   0.6021   0.7263   1.0033   1.2243   1.3336   1.3423   1.3891
     1.5442   1.6339   1.6473   1.9672   2.3775   2.4182   2.4533   2.5479
     2.5666   2.7549   2.7701   3.7954   3.8991   3.9918   4.0582   4.0785
     4.1219   4.1904   4.3928   4.4193   4.4959   5.3144   5.4881   5.5519
     5.5548   5.5882   5.7048   5.7390   5.8042   5.8537   6.2718   6.2867
     6.4150   6.4187   6.4426   6.5832   6.6913   6.9597   7.0836   7.1133
     7.1701   7.1985   7.2882   7.3443   7.3980   7.4019   7.4056   7.4326
     7.4331   7.4511   7.4795   7.5190   7.5308   7.5544   7.8598   8.0082
     8.0356   8.0538   8.2105   8.2702   8.3244   8.3643   8.7808   8.9438
     9.3614   9.6663   9.6888   9.8675   9.9114   9.9420   9.9564   9.9662
    10.0063  10.0078  10.0197  10.0309  10.0823  10.2468  10.7919  10.8991
    10.9103  11.0961  11.1043  11.1731  11.8959  13.2110  14.2627  14.4740
    17.1396  17.2491  18.0557  18.5116  19.2067  19.3250  19.4500  19.4640
    19.4894  19.5215  19.6315  19.6523  19.7118  19.7421  19.8291  19.8943
    19.9051  19.9719  20.0050  20.1213  20.1368  20.2696  20.6572  20.7293

     occupation numbers 
     1.0000   1.0000   1.0000   1.0000   1.0000   1.0000   1.0000   1.0000
     1.0000   1.0000   1.0000   1.0000   1.0000   1.0000   1.0000   1.0000
     1.0000   1.0000   1.0000   1.0000   1.0000   1.0000   1.0000   1.0000
     1.0000   1.0000   1.0000   1.0000   1.0000   1.0000   1.0000   1.0000
     1.0000   1.0000   1.0000   1.0000   1.0000   1.0000   1.0000   1.0000
     1.0000   1.0000   1.0000   1.0000   1.0000   1.0000   1.0000   1.0000
     1.0000   1.0000   1.0000   1.0000   1.0000   1.0000   1.0000   1.0000
     1.0000   1.0000   1.0000   1.0000   1.0000   1.0000   1.0000   1.0000
     1.0000   1.0000   1.0000   1.0000   1.0000   1.0000   1.0000   1.0000
     1.0000   1.0000   1.0000   1.0000   1.0000   1.0000   1.0000   1.0000
     1.0000   1.0000   1.0000   1.0000   1.0000   1.0000   1.0000   1.0000
     1.0000   1.0000   1.0000   1.0000   1.0000   1.0000   1.0000   1.0000
     1.0000   1.0000   1.0000   1.0000   1.0000   1.0000   1.0000   1.0000
     1.0000   1.0000   1.0000   1.0000   1.0000   1.0000   1.0000   1.0000
     1.0000   1.0000   1.0000   1.0000   1.0000   1.0000   1.0000   1.0000
     1.0000   1.0000   1.0000   1.0000   1.0000   1.0000   1.0000   1.0000
     0.0000   0.0000   0.0000   0.0000   0.0000   0.0000   0.0000   0.0000
     0.0000   0.0000   0.0000   0.0000   0.0000   0.0000   0.0000   0.0000
     0.0000   0.0000   0.0000   0.0000   0.0000   0.0000   0.0000   0.0000

          k = 0.0000-0.5000-0.5000 ( 41364 PWs)   bands (ev):

    -7.8440  -7.4151  -7.3576  -7.1146  -5.8882  -5.2226  -5.1880  -5.1368
    -5.1364  -5.1123  -4.9858  -4.5451  -3.4915  -3.0709  -3.0227  -2.9871
    -2.9403  -2.9264  -2.7659  -2.5142  -2.1393  -1.8324  -1.8053  -1.7376
    -1.7024  -1.6852  -1.5753  -0.9045  -0.2286  -0.0432  -0.0159   0.2008
     0.4599   0.5056   0.5796   0.5927   0.7180   0.7909   0.8839   0.9558
     1.1188   1.2610   1.4138   2.4361   3.4499   3.4594   3.4829   3.6536
     3.6579   3.6813   3.7730   3.8082   3.8260   3.8528   3.8754   3.8981
     3.9075   3.9149   3.9365   3.9538   4.1649   4.4177   4.4982   5.5258
     5.7459   5.8306   5.8916   5.9367   5.9810   6.0898   6.2100   6.3092
     6.3818   6.5060   6.5860   6.6016   6.6438   6.7070   6.7122   6.8694
     6.9299   7.0062   7.0105   7.0668   7.2529   7.2986   7.3266   7.4636
     7.5817   7.7540   7.8199   8.0367   8.1847   8.2193   8.2255   8.3543
     8.3867   8.4282   8.5767   8.5979   8.9291   8.9676   9.0198   9.2260
     9.2599   9.3383   9.3701   9.3847   9.4105   9.4791   9.4946   9.5770
     9.6475   9.6557   9.6789   9.6813   9.6964   9.7209   9.7389   9.7516
    11.2250  11.4165  11.5445  12.0861  12.1480  13.1961  14.2629  14.5699
    18.4208  18.6248  18.7510  18.9081  19.0254  19.1783  19.2270  19.2483
    19.3020  19.3786  19.4031  19.5424  19.6149  19.6911  19.6997  19.8511
    19.8653  19.8972  19.9373  19.9497  20.1435  20.1490  20.3910  20.5140

     occupation numbers 
     1.0000   1.0000   1.0000   1.0000   1.0000   1.0000   1.0000   1.0000
     1.0000   1.0000   1.0000   1.0000   1.0000   1.0000   1.0000   1.0000
     1.0000   1.0000   1.0000   1.0000   1.0000   1.0000   1.0000   1.0000
     1.0000   1.0000   1.0000   1.0000   1.0000   1.0000   1.0000   1.0000
     1.0000   1.0000   1.0000   1.0000   1.0000   1.0000   1.0000   1.0000
     1.0000   1.0000   1.0000   1.0000   1.0000   1.0000   1.0000   1.0000
     1.0000   1.0000   1.0000   1.0000   1.0000   1.0000   1.0000   1.0000
     1.0000   1.0000   1.0000   1.0000   1.0000   1.0000   1.0000   1.0000
     1.0000   1.0000   1.0000   1.0000   1.0000   1.0000   1.0000   1.0000
     1.0000   1.0000   1.0000   1.0000   1.0000   1.0000   1.0000   1.0000
     1.0000   1.0000   1.0000   1.0000   1.0000   1.0000   1.0000   1.0000
     1.0000   1.0000   1.0000   1.0000   1.0000   1.0000   1.0000   1.0000
     1.0000   1.0000   1.0000   1.0000   1.0000   1.0000   1.0000   1.0000
     1.0000   1.0000   1.0000   1.0000   1.0000   1.0000   1.0000   1.0000
     1.0000   1.0000   1.0000   1.0000   1.0000   1.0000   1.0000   1.0000
     1.0000   1.0000   1.0000   1.0000   1.0000   1.0000   1.0000   1.0000
     0.0000   0.0000   0.0000   0.0000   0.0000   0.0000   0.0000   0.0000
     0.0000   0.0000   0.0000   0.0000   0.0000   0.0000   0.0000   0.0000
     0.0000   0.0000   0.0000   0.0000   0.0000   0.0000   0.0000   0.0000

          k =-0.5000-0.5000-0.5000 ( 41328 PWs)   bands (ev):

    -7.6268  -6.8889  -6.8532  -6.8532  -6.7856  -6.7272  -6.7272  -6.1857
    -4.0302  -2.7464  -2.7464  -2.6028  -2.6028  -2.5967  -2.5904  -2.5904
    -2.5721  -2.5363  -2.5363  -2.5308  -2.5050  -2.4979  -2.4979  -2.4267
    -2.4267  -2.3987  -2.3793  -2.3793  -2.3392  -2.0593  -2.0592  -0.1403
     1.6312   1.8217   1.8217   2.0618   2.0918   2.0934   2.0934   2.1018
     2.1178   2.1178   2.1415   2.1489   2.1489   2.1670   2.1670   2.2006
     2.2006   2.2144   2.2485   2.2485   2.6555   2.8973   2.8973   4.6069
     5.6425   5.6425   5.8127   6.0785   6.1062   6.1062   6.1335   6.1335
     6.1342   6.1348   6.1738   6.1738   6.1768   6.1934   6.1934   6.2132
     6.2132   6.2359   6.2516   6.2516   6.2555   6.2651   6.3023   6.3556
     6.3556   6.4043   6.4995   6.4995   6.9407   6.9519   6.9519   7.6264
     7.6264   7.9406   7.9406   7.9563   7.9677   7.9677   7.9981   8.0010
     8.0150   8.0267   8.0267   8.0453   8.0571   8.0571   8.1001   8.1001
     8.1492   8.1971   8.1971   8.3180   9.5721   9.7663   9.7663  10.6465
    10.8923  10.8923  11.1118  11.1118  11.1422  11.1422  11.1455  11.1685
    11.1685  11.1797  11.2065  11.2065  11.2146  13.4068  14.5732  14.5732
    18.3231  18.8281  18.8281  18.9380  18.9380  18.9495  18.9523  18.9585
    18.9585  18.9915  18.9915  19.0310  19.0336  19.0441  19.0441  19.1296
    19.1651  19.1651  19.4977  19.4977  19.5194  19.6509  19.6509  19.9146

     occupation numbers 
     1.0000   1.0000   1.0000   1.0000   1.0000   1.0000   1.0000   1.0000
     1.0000   1.0000   1.0000   1.0000   1.0000   1.0000   1.0000   1.0000
     1.0000   1.0000   1.0000   1.0000   1.0000   1.0000   1.0000   1.0000
     1.0000   1.0000   1.0000   1.0000   1.0000   1.0000   1.0000   1.0000
     1.0000   1.0000   1.0000   1.0000   1.0000   1.0000   1.0000   1.0000
     1.0000   1.0000   1.0000   1.0000   1.0000   1.0000   1.0000   1.0000
     1.0000   1.0000   1.0000   1.0000   1.0000   1.0000   1.0000   1.0000
     1.0000   1.0000   1.0000   1.0000   1.0000   1.0000   1.0000   1.0000
     1.0000   1.0000   1.0000   1.0000   1.0000   1.0000   1.0000   1.0000
     1.0000   1.0000   1.0000   1.0000   1.0000   1.0000   1.0000   1.0000
     1.0000   1.0000   1.0000   1.0000   1.0000   1.0000   1.0000   1.0000
     1.0000   1.0000   1.0000   1.0000   1.0000   1.0000   1.0000   1.0000
     1.0000   1.0000   1.0000   1.0000   1.0000   1.0000   1.0000   1.0000
     1.0000   1.0000   1.0000   1.0000   1.0000   1.0000   1.0000   1.0000
     1.0000   1.0000   1.0000   1.0000   1.0000   1.0000   1.0000   1.0000
     1.0000   1.0000   1.0000   1.0000   1.0000   1.0000   1.0000   1.0000
     0.0000   0.0000   0.0000   0.0000   0.0000   0.0000   0.0000   0.0000
     0.0000   0.0000   0.0000   0.0000   0.0000   0.0000   0.0000   0.0000
     0.0000   0.0000   0.0000   0.0000   0.0000   0.0000   0.0000   0.0000

 ------ SPIN DOWN ----------


          k = 0.0000 0.0000 0.0000 ( 41395 PWs)   bands (ev):

    -8.5494  -6.9843  -6.2620  -6.2620  -6.1319  -6.1319  -5.8573  -4.9313
    -4.1194  -4.1194  -4.0972  -4.0972  -3.9903  -3.9903  -3.9838  -3.9292
    -3.8320  -3.8320  -3.3307  -2.9553  -2.6388  -2.6388  -1.9929  -0.3693
    -0.3693  -0.3365  -0.3004  -0.0546   0.1797   0.1797   0.3016   0.3016
     0.3689   0.6121   0.8139   0.8139   0.9816   0.9816   1.0140   1.0250
     1.0250   1.0649   1.4402   1.4402   3.1101   3.8936   3.8936   4.0309
     4.2349   4.2402   4.2402   4.2433   4.2706   4.2706   4.4428   4.4428
     4.4769   4.4769   4.5997   4.6507   4.6516   4.6527   4.6527   4.7614
     4.7614   4.8739   4.9480   4.9480   5.1049   5.2258   5.2258   5.2863
     5.3316   5.3316   5.3716   5.4393   5.4393   6.0329   6.0329   6.0475
     6.6048   6.6048   6.7299   7.0003   7.0717   7.0717   7.5934   8.3111
     8.3111   8.3932   8.4688   8.4688   8.6407   8.6407   8.7995   8.7995
     8.8034   8.8252   8.8787   8.8806   8.8806   9.2606   9.2606   9.2614
     9.6945   9.6945   9.8813   9.8813   9.8815   9.9065   9.9478   9.9564
     9.9564   9.9583   9.9922   9.9922  10.1058  10.1058  10.2457  10.2457
    10.3180  11.2263  12.4228  12.5207  12.5207  14.1700  16.1035  16.1035
    17.3400  17.3435  17.3435  17.5191  17.5543  17.5543  17.8316  17.8954
    17.8954  17.9856  17.9856  18.4036  18.9395  18.9423  18.9423  20.6726
    20.7699  20.7700  20.8165  20.9029  20.9029  20.9885  20.9886  21.0155

     occupation numbers 
     1.0000   1.0000   1.0000   1.0000   1.0000   1.0000   1.0000   1.0000
     1.0000   1.0000   1.0000   1.0000   1.0000   1.0000   1.0000   1.0000
     1.0000   1.0000   1.0000   1.0000   1.0000   1.0000   1.0000   1.0000
     1.0000   1.0000   1.0000   1.0000   1.0000   1.0000   1.0000   1.0000
     1.0000   1.0000   1.0000   1.0000   1.0000   1.0000   1.0000   1.0000
     1.0000   1.0000   1.0000   1.0000   1.0000   1.0000   1.0000   1.0000
     1.0000   1.0000   1.0000   1.0000   1.0000   1.0000   1.0000   1.0000
     1.0000   1.0000   1.0000   1.0000   1.0000   1.0000   1.0000   1.0000
     1.0000   1.0000   1.0000   1.0000   1.0000   1.0000   1.0000   1.0000
     1.0000   1.0000   1.0000   1.0000   1.0000   1.0000   1.0000   1.0000
     1.0000   1.0000   1.0000   1.0000   1.0000   1.0000   1.0000   1.0000
     1.0000   1.0000   1.0000   1.0000   1.0000   1.0000   1.0000   1.0000
     1.0000   1.0000   1.0000   1.0000   1.0000   1.0000   1.0000   1.0000
     1.0000   1.0000   1.0000   1.0000   1.0000   1.0000   1.0000   1.0000
     1.0000   1.0000   1.0000   1.0000   1.0000   1.0000   1.0000   1.0000
     1.0000   1.0000   1.0000   1.0000   1.0000   1.0000   0.0000   0.0000
     0.0000   0.0000   0.0000   0.0000   0.0000   0.0000   0.0000   0.0000
     0.0000   0.0000   0.0000   0.0000   0.0000   0.0000   0.0000   0.0000
     0.0000   0.0000   0.0000   0.0000   0.0000   0.0000   0.0000   0.0000

          k = 0.0000 0.0000-0.5000 ( 41426 PWs)   bands (ev):

    -8.1494  -7.8243  -6.5300  -5.7586  -5.6773  -5.6618  -5.6562  -5.6375
    -5.4625  -5.1304  -4.2079  -3.6475  -3.6321  -3.5935  -3.5503  -3.4948
    -3.4079  -3.3392  -3.3206  -2.7307  -1.9484  -1.6068  -1.5983  -1.5717
    -1.5011  -1.4064  -1.3110  -0.6906   0.3296   0.3794   0.4453   0.4791
     0.5487   0.6226   0.8123   1.0427   1.2557   1.3546   1.3686   1.4256
     1.5724   1.6724   1.7026   2.0141   2.4079   2.4393   2.4823   2.5707
     2.5833   2.8568   2.8769   3.8420   3.9135   4.0051   4.0738   4.1022
     4.1708   4.2262   4.4300   4.4765   4.5539   5.3861   5.5076   5.5657
     5.5810   5.6083   5.7609   5.7720   5.8437   5.9009   6.2993   6.3211
     6.4304   6.4626   6.4756   6.6427   6.7505   6.9789   7.0983   7.1539
     7.2178   7.2199   7.3153   7.3678   7.4157   7.4196   7.4269   7.4482
     7.4642   7.4652   7.4968   7.5695   7.5805   7.6058   7.8944   8.0483
     8.1002   8.1113   8.2435   8.3059   8.3610   8.4039   8.8393   9.0457
     9.4208   9.7149   9.7778   9.9153   9.9220   9.9565   9.9724   9.9831
    10.0178  10.0364  10.0549  10.0782  10.1183  10.3093  10.8198  10.9624
    11.0241  11.1482  11.2250  11.2751  12.1014  13.9233  15.6904  15.9522
    17.1697  17.2812  18.0816  18.5522  19.2277  19.3374  19.4665  19.4836
    19.5078  19.5681  19.6568  19.6764  19.7290  19.7711  19.8743  19.9178
    19.9675  20.0179  20.0734  20.1468  20.1715  20.3427  20.7035  20.7629

     occupation numbers 
     1.0000   1.0000   1.0000   1.0000   1.0000   1.0000   1.0000   1.0000
     1.0000   1.0000   1.0000   1.0000   1.0000   1.0000   1.0000   1.0000
     1.0000   1.0000   1.0000   1.0000   1.0000   1.0000   1.0000   1.0000
     1.0000   1.0000   1.0000   1.0000   1.0000   1.0000   1.0000   1.0000
     1.0000   1.0000   1.0000   1.0000   1.0000   1.0000   1.0000   1.0000
     1.0000   1.0000   1.0000   1.0000   1.0000   1.0000   1.0000   1.0000
     1.0000   1.0000   1.0000   1.0000   1.0000   1.0000   1.0000   1.0000
     1.0000   1.0000   1.0000   1.0000   1.0000   1.0000   1.0000   1.0000
     1.0000   1.0000   1.0000   1.0000   1.0000   1.0000   1.0000   1.0000
     1.0000   1.0000   1.0000   1.0000   1.0000   1.0000   1.0000   1.0000
     1.0000   1.0000   1.0000   1.0000   1.0000   1.0000   1.0000   1.0000
     1.0000   1.0000   1.0000   1.0000   1.0000   1.0000   1.0000   1.0000
     1.0000   1.0000   1.0000   1.0000   1.0000   1.0000   1.0000   1.0000
     1.0000   1.0000   1.0000   1.0000   1.0000   1.0000   1.0000   1.0000
     1.0000   1.0000   1.0000   1.0000   1.0000   1.0000   1.0000   1.0000
     1.0000   1.0000   1.0000   1.0000   1.0000   1.0000   0.0000   0.0000
     0.0000   0.0000   0.0000   0.0000   0.0000   0.0000   0.0000   0.0000
     0.0000   0.0000   0.0000   0.0000   0.0000   0.0000   0.0000   0.0000
     0.0000   0.0000   0.0000   0.0000   0.0000   0.0000   0.0000   0.0000

          k = 0.0000-0.5000-0.5000 ( 41364 PWs)   bands (ev):

    -7.8340  -7.3966  -7.3281  -7.0705  -5.8657  -5.2093  -5.1733  -5.1159
    -5.1023  -5.0863  -4.9271  -4.4786  -3.4544  -3.0577  -3.0069  -2.9746
    -2.8943  -2.8892  -2.7098  -2.4883  -2.1227  -1.8169  -1.7877  -1.7254
    -1.6707  -1.6426  -1.4622  -0.7979  -0.1925  -0.0099   0.0125   0.2652
     0.4753   0.5327   0.6122   0.6147   0.7448   0.8126   0.9224   0.9877
     1.1380   1.3122   1.5126   2.5518   3.4792   3.4844   3.5037   3.6759
     3.6857   3.6972   3.7924   3.8428   3.8637   3.8806   3.9033   3.9243
     3.9292   3.9543   3.9559   3.9789   4.2042   4.5242   4.6160   5.5828
     5.7799   5.8504   5.9051   5.9631   6.0053   6.1191   6.2579   6.3905
     6.4180   6.5255   6.6135   6.6234   6.6839   6.7224   6.7275   6.8928
     6.9540   7.0318   7.0409   7.0942   7.2878   7.3370   7.3650   7.4789
     7.6107   7.8010   7.8854   8.0645   8.2006   8.2384   8.2471   8.4313
     8.4489   8.4880   8.6474   8.6486   8.9630   9.0188   9.0586   9.2544
     9.3169   9.3514   9.3928   9.4153   9.4593   9.5070   9.5306   9.5952
     9.6863   9.7054   9.7163   9.7251   9.7317   9.7571   9.7815   9.7967
    11.2837  11.5556  11.9984  12.1108  12.1723  13.9284  15.6723  15.9873
    18.4387  18.6516  18.7758  18.9283  19.0655  19.2158  19.2519  19.2717
    19.3309  19.4213  19.4234  19.5859  19.6351  19.7081  19.7262  19.8692
    19.8890  19.9132  19.9652  19.9767  20.1808  20.2060  20.4325  20.5497

     occupation numbers 
     1.0000   1.0000   1.0000   1.0000   1.0000   1.0000   1.0000   1.0000
     1.0000   1.0000   1.0000   1.0000   1.0000   1.0000   1.0000   1.0000
     1.0000   1.0000   1.0000   1.0000   1.0000   1.0000   1.0000   1.0000
     1.0000   1.0000   1.0000   1.0000   1.0000   1.0000   1.0000   1.0000
     1.0000   1.0000   1.0000   1.0000   1.0000   1.0000   1.0000   1.0000
     1.0000   1.0000   1.0000   1.0000   1.0000   1.0000   1.0000   1.0000
     1.0000   1.0000   1.0000   1.0000   1.0000   1.0000   1.0000   1.0000
     1.0000   1.0000   1.0000   1.0000   1.0000   1.0000   1.0000   1.0000
     1.0000   1.0000   1.0000   1.0000   1.0000   1.0000   1.0000   1.0000
     1.0000   1.0000   1.0000   1.0000   1.0000   1.0000   1.0000   1.0000
     1.0000   1.0000   1.0000   1.0000   1.0000   1.0000   1.0000   1.0000
     1.0000   1.0000   1.0000   1.0000   1.0000   1.0000   1.0000   1.0000
     1.0000   1.0000   1.0000   1.0000   1.0000   1.0000   1.0000   1.0000
     1.0000   1.0000   1.0000   1.0000   1.0000   1.0000   1.0000   1.0000
     1.0000   1.0000   1.0000   1.0000   1.0000   1.0000   1.0000   1.0000
     1.0000   1.0000   1.0000   1.0000   1.0000   1.0000   0.0000   0.0000
     0.0000   0.0000   0.0000   0.0000   0.0000   0.0000   0.0000   0.0000
     0.0000   0.0000   0.0000   0.0000   0.0000   0.0000   0.0000   0.0000
     0.0000   0.0000   0.0000   0.0000   0.0000   0.0000   0.0000   0.0000

          k =-0.5000-0.5000-0.5000 ( 41328 PWs)   bands (ev):

    -7.6188  -6.8812  -6.8337  -6.8337  -6.7677  -6.6861  -6.6861  -6.1062
    -3.9825  -2.7362  -2.7362  -2.5811  -2.5810  -2.5810  -2.5642  -2.5642
    -2.5540  -2.5183  -2.5183  -2.5159  -2.4912  -2.4867  -2.4867  -2.4073
    -2.4073  -2.3641  -2.3506  -2.3506  -2.3253  -1.8920  -1.8920   0.0329
     1.6630   1.8352   1.8352   2.1064   2.1085   2.1148   2.1148   2.1346
     2.1374   2.1374   2.1585   2.1585   2.1683   2.1950   2.1950   2.2244
     2.2244   2.2453   2.2931   2.2931   2.6985   3.0343   3.0343   4.7674
     5.6677   5.6677   5.8313   6.0974   6.1165   6.1165   6.1451   6.1451
     6.1490   6.1618   6.1933   6.1933   6.2014   6.2162   6.2162   6.2468
     6.2618   6.2618   6.2826   6.2843   6.2843   6.3078   6.3405   6.3695
     6.3695   6.4428   6.5712   6.5712   6.9845   7.0189   7.0189   7.6479
     7.6479   7.9607   7.9607   7.9706   7.9829   7.9829   8.0120   8.0236
     8.0481   8.0534   8.0534   8.0564   8.0701   8.0701   8.1416   8.1416
     8.1605   8.2542   8.2542   8.3969   9.6188   9.9469   9.9469  10.9198
    10.9198  11.1159  11.1365  11.1365  11.1626  11.1626  11.1983  11.2096
    11.2096  11.2324  11.2324  11.2501  11.3904  14.0173  16.0548  16.0548
    18.3394  18.8392  18.8392  18.9508  18.9508  18.9567  18.9739  18.9762
    18.9762  19.0125  19.0125  19.0396  19.0493  19.0682  19.0682  19.1554
    19.2319  19.2319  19.5405  19.5405  19.5444  19.6918  19.6918  19.9868

     occupation numbers 
     1.0000   1.0000   1.0000   1.0000   1.0000   1.0000   1.0000   1.0000
     1.0000   1.0000   1.0000   1.0000   1.0000   1.0000   1.0000   1.0000
     1.0000   1.0000   1.0000   1.0000   1.0000   1.0000   1.0000   1.0000
     1.0000   1.0000   1.0000   1.0000   1.0000   1.0000   1.0000   1.0000
     1.0000   1.0000   1.0000   1.0000   1.0000   1.0000   1.0000   1.0000
     1.0000   1.0000   1.0000   1.0000   1.0000   1.0000   1.0000   1.0000
     1.0000   1.0000   1.0000   1.0000   1.0000   1.0000   1.0000   1.0000
     1.0000   1.0000   1.0000   1.0000   1.0000   1.0000   1.0000   1.0000
     1.0000   1.0000   1.0000   1.0000   1.0000   1.0000   1.0000   1.0000
     1.0000   1.0000   1.0000   1.0000   1.0000   1.0000   1.0000   1.0000
     1.0000   1.0000   1.0000   1.0000   1.0000   1.0000   1.0000   1.0000
     1.0000   1.0000   1.0000   1.0000   1.0000   1.0000   1.0000   1.0000
     1.0000   1.0000   1.0000   1.0000   1.0000   1.0000   1.0000   1.0000
     1.0000   1.0000   1.0000   1.0000   1.0000   1.0000   1.0000   1.0000
     1.0000   1.0000   1.0000   1.0000   1.0000   1.0000   1.0000   1.0000
     1.0000   1.0000   1.0000   1.0000   1.0000   1.0000   0.0000   0.0000
     0.0000   0.0000   0.0000   0.0000   0.0000   0.0000   0.0000   0.0000
     0.0000   0.0000   0.0000   0.0000   0.0000   0.0000   0.0000   0.0000
     0.0000   0.0000   0.0000   0.0000   0.0000   0.0000   0.0000   0.0000

     the Fermi energy is    15.4848 ev

!    total energy              =    -724.82827924 Ry
     Harris-Foulkes estimate   =    -724.82827924 Ry
     estimated scf accuracy    <          7.8E-10 Ry

     The total energy is the sum of the following terms:

     one-electron contribution =     233.09915804 Ry
     hartree contribution      =      69.11009861 Ry
     xc contribution           =    -226.41695239 Ry
     ewald contribution        =    -800.62058350 Ry
     smearing contrib. (-TS)   =       0.00000000 Ry

     total magnetization       =     2.00 Bohr mag/cell
     absolute magnetization    =     2.24 Bohr mag/cell

     convergence has been achieved in  20 iterations

     Forces acting on atoms (cartesian axes, Ry/au):

     atom    1 type  1   force =    -0.00004563    0.00004563    0.00004563
     atom    2 type  1   force =     0.00036270   -0.00036270    0.00042383
     atom    3 type  1   force =    -0.00002150    0.00002150    0.00009226
     atom    4 type  1   force =    -0.00031311    0.00031311    0.00040342
     atom    5 type  1   force =    -0.00042383   -0.00036270   -0.00036270
     atom    6 type  1   force =     0.00017520   -0.00042464   -0.00017520
     atom    7 type  1   force =     0.00017025   -0.00012638    0.00011659
     atom    8 type  1   force =    -0.00039344   -0.00054172   -0.00014779
     atom    9 type  1   force =    -0.00009226    0.00002150    0.00002150
     atom   10 type  1   force =    -0.00011659   -0.00012638   -0.00017025
     atom   11 type  1   force =    -0.00002150    0.00009226    0.00002150
     atom   12 type  1   force =     0.00012638    0.00011659   -0.00017025
     atom   13 type  1   force =    -0.00040342    0.00031311    0.00031311
     atom   14 type  1   force =     0.00014779   -0.00054172    0.00039344
     atom   15 type  1   force =     0.00017025    0.00011659   -0.00012638
     atom   16 type  1   force =    -0.00043089    0.00082813    0.00043089
     atom   17 type  1   force =     0.00036270    0.00042383   -0.00036270
     atom   18 type  1   force =     0.00042464   -0.00017520   -0.00017520
     atom   19 type  1   force =     0.00012638   -0.00017025    0.00011659
     atom   20 type  1   force =     0.00054172    0.00039344   -0.00014779
     atom   21 type  1   force =     0.00017520   -0.00017520   -0.00042464
     atom   22 type  1   force =    -0.00043089    0.00043089    0.00082813
     atom   23 type  1   force =    -0.00000951    0.00000951   -0.00010583
     atom   24 type  1   force =    -0.00011659   -0.00017025   -0.00012638
     atom   25 type  1   force =    -0.00082813    0.00043089    0.00043089
     atom   26 type  1   force =    -0.00031311    0.00040342    0.00031311
     atom   27 type  1   force =     0.00054172   -0.00014779    0.00039344
     atom   28 type  1   force =     0.00014779    0.00039344   -0.00054172
     atom   29 type  1   force =     0.00010583    0.00000951    0.00000951
     atom   30 type  1   force =    -0.00039344   -0.00014779   -0.00054172
     atom   31 type  1   force =    -0.00000951   -0.00010583    0.00000951
     atom   32 type  1   force =    -0.00034890   -0.00046126   -0.00046126
     atom   33 type  1   force =    -0.00019345   -0.00039824    0.00019345
     atom   34 type  1   force =     0.00010537   -0.00010673    0.00009580
     atom   35 type  1   force =    -0.00035141   -0.00069650    0.00061061
     atom   36 type  1   force =    -0.00032390   -0.00031005   -0.00031005
     atom   37 type  1   force =    -0.00009580   -0.00010673   -0.00010537
     atom   38 type  1   force =     0.00031005    0.00032390   -0.00031005
     atom   39 type  1   force =     0.00010673    0.00009580   -0.00010537
     atom   40 type  1   force =    -0.00016871    0.00046571    0.00046571
     atom   41 type  1   force =    -0.00061061   -0.00069650    0.00035141
     atom   42 type  1   force =     0.00010537    0.00009580   -0.00010673
     atom   43 type  1   force =    -0.00006998    0.00061219    0.00006998
     atom   44 type  1   force =    -0.00043652    0.00043652    0.00043652
     atom   45 type  1   force =     0.00046126   -0.00046126    0.00034890
     atom   46 type  1   force =     0.00031005   -0.00031005    0.00032390
     atom   47 type  1   force =    -0.00046571    0.00046571    0.00016871
     atom   48 type  1   force =    -0.00019345    0.00019345   -0.00039824
     atom   49 type  1   force =    -0.00006998    0.00006998    0.00061219
     atom   50 type  1   force =     0.00073744   -0.00073744   -0.00031123
     atom   51 type  1   force =    -0.00009580   -0.00010537   -0.00010673
     atom   52 type  1   force =    -0.00061219    0.00006998    0.00006998
     atom   53 type  1   force =    -0.00046571    0.00016871    0.00046571
     atom   54 type  1   force =     0.00069650    0.00061061    0.00035141
     atom   55 type  1   force =    -0.00061061    0.00035141   -0.00069650
     atom   56 type  1   force =     0.00031123   -0.00073744   -0.00073744
     atom   57 type  1   force =    -0.00035141    0.00061061   -0.00069650
     atom   58 type  1   force =     0.00073744   -0.00031123   -0.00073744
     atom   59 type  1   force =     0.00046126    0.00034890   -0.00046126
     atom   60 type  1   force =     0.00039824    0.00019345    0.00019345
     atom   61 type  1   force =     0.00010673   -0.00010537    0.00009580
     atom   62 type  1   force =     0.00069650    0.00035141    0.00061061
     atom   63 type  2   force =     0.00070475   -0.00070475   -0.00070475
     The non-local contrib.  to forces
     atom    1 type  1   force =    -0.00561737    0.00561737    0.00561737
     atom    2 type  1   force =     0.01172654   -0.01172654    0.00998191
     atom    3 type  1   force =     0.00420541   -0.00420541    0.01696652
     atom    4 type  1   force =    -0.01510484    0.01510484   -0.00073470
     atom    5 type  1   force =    -0.00998191   -0.01172654   -0.01172654
     atom    6 type  1   force =    -0.13082269   -0.12349979    0.13082269
     atom    7 type  1   force =     0.06474959    0.05715743   -0.08047163
     atom    8 type  1   force =    -0.00362864    0.01692579    0.00487216
     atom    9 type  1   force =    -0.01696652   -0.00420541   -0.00420541
     atom   10 type  1   force =     0.08047163    0.05715743   -0.06474959
     atom   11 type  1   force =     0.00420541    0.01696652   -0.00420541
     atom   12 type  1   force =    -0.05715743   -0.08047163   -0.06474959
     atom   13 type  1   force =     0.00073470    0.01510484    0.01510484
     atom   14 type  1   force =    -0.00487216    0.01692579    0.00362864
     atom   15 type  1   force =     0.06474959   -0.08047163    0.05715743
     atom   16 type  1   force =    -0.07168262    0.06492681    0.07168262
     atom   17 type  1   force =     0.01172654    0.00998191   -0.01172654
     atom   18 type  1   force =     0.12349979    0.13082269    0.13082269
     atom   19 type  1   force =    -0.05715743   -0.06474959   -0.08047163
     atom   20 type  1   force =    -0.01692579    0.00362864    0.00487216
     atom   21 type  1   force =    -0.13082269    0.13082269   -0.12349979
     atom   22 type  1   force =    -0.07168262    0.07168262    0.06492681
     atom   23 type  1   force =    -0.00875108    0.00875108   -0.00586960
     atom   24 type  1   force =     0.08047163   -0.06474959    0.05715743
     atom   25 type  1   force =    -0.06492681    0.07168262    0.07168262
     atom   26 type  1   force =    -0.01510484   -0.00073470    0.01510484
     atom   27 type  1   force =    -0.01692579    0.00487216    0.00362864
     atom   28 type  1   force =    -0.00487216    0.00362864    0.01692579
     atom   29 type  1   force =     0.00586960    0.00875108    0.00875108
     atom   30 type  1   force =    -0.00362864    0.00487216    0.01692579
     atom   31 type  1   force =    -0.00875108   -0.00586960    0.00875108
     atom   32 type  1   force =    -0.00914650   -0.00986341   -0.00986341
     atom   33 type  1   force =     0.01579325   -0.04911694   -0.01579325
     atom   34 type  1   force =     0.03912286   -0.01387002   -0.02497592
     atom   35 type  1   force =    -0.04789137    0.02441139   -0.01738525
     atom   36 type  1   force =    -0.05727553   -0.00372925   -0.00372925
     atom   37 type  1   force =     0.02497592   -0.01387002   -0.03912286
     atom   38 type  1   force =     0.00372925    0.05727553   -0.00372925
     atom   39 type  1   force =     0.01387002   -0.02497592   -0.03912286
     atom   40 type  1   force =    -0.05493255   -0.00201216   -0.00201216
     atom   41 type  1   force =     0.01738525    0.02441139    0.04789137
     atom   42 type  1   force =     0.03912286   -0.02497592   -0.01387002
     atom   43 type  1   force =    -0.22265549   -0.24548599    0.22265549
     atom   44 type  1   force =    -0.01027490    0.01027490    0.01027490
     atom   45 type  1   force =     0.00986341   -0.00986341    0.00914650
     atom   46 type  1   force =     0.00372925   -0.00372925    0.05727553
     atom   47 type  1   force =     0.00201216   -0.00201216    0.05493255
     atom   48 type  1   force =     0.01579325   -0.01579325   -0.04911694
     atom   49 type  1   force =    -0.22265549    0.22265549   -0.24548599
     atom   50 type  1   force =    -0.02310769    0.02310769   -0.06698784
     atom   51 type  1   force =     0.02497592   -0.03912286   -0.01387002
     atom   52 type  1   force =     0.24548599    0.22265549    0.22265549
     atom   53 type  1   force =     0.00201216    0.05493255   -0.00201216
     atom   54 type  1   force =    -0.02441139   -0.01738525    0.04789137
     atom   55 type  1   force =     0.01738525    0.04789137    0.02441139
     atom   56 type  1   force =     0.06698784    0.02310769    0.02310769
     atom   57 type  1   force =    -0.04789137   -0.01738525    0.02441139
     atom   58 type  1   force =    -0.02310769   -0.06698784    0.02310769
     atom   59 type  1   force =     0.00986341    0.00914650   -0.00986341
     atom   60 type  1   force =     0.04911694   -0.01579325   -0.01579325
     atom   61 type  1   force =     0.01387002   -0.03912286   -0.02497592
     atom   62 type  1   force =    -0.02441139    0.04789137   -0.01738525
     atom   63 type  2   force =     0.77153158   -0.77153158   -0.77153158
     The ionic contribution  to forces
     atom    1 type  1   force =     0.02310480   -0.02310506   -0.02310159
     atom    2 type  1   force =    -0.10286543    0.10286333   -0.29373920
     atom    3 type  1   force =    -0.10458878    0.10459016   -0.21505170
     atom    4 type  1   force =     0.13129224   -0.13129022   -0.02491806
     atom    5 type  1   force =     0.29373989    0.10286374    0.10286490
     atom    6 type  1   force =    -0.20674942    1.24393354    0.20674792
     atom    7 type  1   force =     0.21520337   -0.70699526    0.69963262
     atom    8 type  1   force =     0.13958856   -0.01231201    0.20837483
     atom    9 type  1   force =     0.21505334    0.10458934    0.10458423
     atom   10 type  1   force =    -0.69963576   -0.70699364   -0.21520363
     atom   11 type  1   force =    -0.10459083   -0.21505288    0.10459045
     atom   12 type  1   force =     0.70699726    0.69962999   -0.21520627
     atom   13 type  1   force =     0.02492011   -0.13129043   -0.13128839
     atom   14 type  1   force =    -0.20837554   -0.01231178   -0.13958681
     atom   15 type  1   force =     0.21520462    0.69963367   -0.70699756
     atom   16 type  1   force =     0.70665432    0.34989574   -0.70665035
     atom   17 type  1   force =    -0.10286612   -0.29374056    0.10286291
     atom   18 type  1   force =    -1.24393388    0.20674759    0.20675010
     atom   19 type  1   force =     0.70699789   -0.21520265    0.69963179
     atom   20 type  1   force =     0.01231096   -0.13958740    0.20837458
     atom   21 type  1   force =    -0.20675233    0.20675071    1.24392930
     atom   22 type  1   force =     0.70665110   -0.70665008    0.34989157
     atom   23 type  1   force =     0.07243688   -0.07243288    0.09135556
     atom   24 type  1   force =    -0.69963448   -0.21520405   -0.70699388
     atom   25 type  1   force =    -0.34989340   -0.70665003   -0.70664782
     atom   26 type  1   force =     0.13129429   -0.02492189   -0.13129469
     atom   27 type  1   force =     0.01231018    0.20837396   -0.13958430
     atom   28 type  1   force =    -0.20837582   -0.13958613   -0.01231204
     atom   29 type  1   force =    -0.09135554   -0.07243241   -0.07243026
     atom   30 type  1   force =     0.13958985    0.20837234   -0.01230884
     atom   31 type  1   force =     0.07243452    0.09135423   -0.07243028
     atom   32 type  1   force =     0.12278732    0.00917966    0.00918077
     atom   33 type  1   force =     0.16745768    0.11113351   -0.16745789
     atom   34 type  1   force =    -0.20693608    0.07051966    0.48355418
     atom   35 type  1   force =     0.07582790   -0.21598624    0.15031166
     atom   36 type  1   force =     0.64785799    0.23364890    0.23364956
     atom   37 type  1   force =    -0.48355432    0.07051939    0.20693424
     atom   38 type  1   force =    -0.23364984   -0.64785651    0.23364877
     atom   39 type  1   force =    -0.07052108    0.48355424    0.20693643
     atom   40 type  1   force =     0.61273521   -0.19818205   -0.19818222
     atom   41 type  1   force =    -0.15031266   -0.21598552   -0.07582741
     atom   42 type  1   force =    -0.20693904    0.48355302    0.07051963
     atom   43 type  1   force =     2.12549665    2.19072976   -2.12549468
     atom   44 type  1   force =     0.09999764   -0.09999960   -0.09999830
     atom   45 type  1   force =    -0.00918233    0.00918007   -0.12278746
     atom   46 type  1   force =    -0.23364918    0.23365066   -0.64785750
     atom   47 type  1   force =     0.19818414   -0.19818154   -0.61273414
     atom   48 type  1   force =     0.16745682   -0.16745764    0.11113114
     atom   49 type  1   force =     2.12549346   -2.12549429    2.19072744
     atom   50 type  1   force =     0.18532286   -0.18531918    0.02290292
     atom   51 type  1   force =    -0.48355718    0.20693575    0.07052007
     atom   52 type  1   force =    -2.19073039   -2.12549444   -2.12549535
     atom   53 type  1   force =     0.19818368   -0.61272872   -0.19818310
     atom   54 type  1   force =     0.21598893    0.15030806   -0.07583113
     atom   55 type  1   force =    -0.15031411   -0.07582533   -0.21598793
     atom   56 type  1   force =    -0.02290284   -0.18532087   -0.18532016
     atom   57 type  1   force =     0.07582814    0.15031059   -0.21598431
     atom   58 type  1   force =     0.18531893    0.02290254   -0.18531928
     atom   59 type  1   force =    -0.00918220   -0.12278601    0.00918055
     atom   60 type  1   force =    -0.11113358   -0.16746111   -0.16745862
     atom   61 type  1   force =    -0.07052189    0.20693758    0.48355476
     atom   62 type  1   force =     0.21598862   -0.07582845    0.15031251
     atom   63 type  2   force =    -2.98300611    2.98300512    2.98300976
     The local contribution  to forces
     atom    1 type  1   force =    -0.01753397    0.01753397    0.01753397
     atom    2 type  1   force =     0.09149243   -0.09149411    0.28418332
     atom    3 type  1   force =     0.10035701   -0.10035701    0.19818080
     atom    4 type  1   force =    -0.11649609    0.11649773    0.02605870
     atom    5 type  1   force =    -0.28418337   -0.09149410   -0.09149579
     atom    6 type  1   force =     0.33773629   -1.12085210   -0.33773975
     atom    7 type  1   force =    -0.27978926    0.64970580   -0.61903581
     atom    8 type  1   force =    -0.13634922   -0.00515495   -0.21338705
     atom    9 type  1   force =    -0.19818074   -0.10035697   -0.10036033
     atom   10 type  1   force =     0.61903372    0.64970532    0.27978619
     atom   11 type  1   force =     0.10035701    0.19818080   -0.10035701
     atom   12 type  1   force =    -0.64970540   -0.61903460    0.27978626
     atom   13 type  1   force =    -0.02605870    0.11649775    0.11649775
     atom   14 type  1   force =     0.21338541   -0.00515497    0.13635083
     atom   15 type  1   force =    -0.27978881   -0.61903368    0.64970211
     atom   16 type  1   force =    -0.63539288   -0.41398797    0.63539121
     atom   17 type  1   force =     0.09149242    0.28418335   -0.09149579
     atom   18 type  1   force =     1.12085229   -0.33773979   -0.33773806
     atom   19 type  1   force =    -0.64970420    0.27978925   -0.61903746
     atom   20 type  1   force =     0.00515499    0.13635087   -0.21338874
     atom   21 type  1   force =     0.33773661   -0.33773745   -1.12085449
     atom   22 type  1   force =    -0.63539362    0.63539529   -0.41399270
     atom   23 type  1   force =    -0.06369162    0.06369162   -0.08558795
     atom   24 type  1   force =     0.61903401    0.27978912    0.64970564
     atom   25 type  1   force =     0.41398695    0.63539477    0.63539477
     atom   26 type  1   force =    -0.11649772    0.02605870    0.11649443
     atom   27 type  1   force =     0.00515498   -0.21338707    0.13635085
     atom   28 type  1   force =     0.21338541    0.13635083   -0.00515497
     atom   29 type  1   force =     0.08558795    0.06369162    0.06369162
     atom   30 type  1   force =    -0.13634922   -0.21338705   -0.00515495
     atom   31 type  1   force =    -0.06369162   -0.08558795    0.06369162
     atom   32 type  1   force =    -0.11398856    0.00022477    0.00022391
     atom   33 type  1   force =    -0.18345324   -0.06240685    0.18345052
     atom   34 type  1   force =     0.16791204   -0.05675884   -0.45847640
     atom   35 type  1   force =    -0.02829043    0.19087714   -0.13231235
     atom   36 type  1   force =    -0.59090285   -0.23022281   -0.23022445
     atom   37 type  1   force =     0.45847655   -0.05675875   -0.16791537
     atom   38 type  1   force =     0.23022284    0.59090376   -0.23022447
     atom   39 type  1   force =     0.05675730   -0.45847510   -0.16791203
     atom   40 type  1   force =    -0.55796596    0.20066248    0.20065930
     atom   41 type  1   force =     0.13230889    0.19087712    0.02828865
     atom   42 type  1   force =     0.16791204   -0.45847640   -0.05675884
     atom   43 type  1   force =    -1.90290478   -1.94462088    1.90290359
     atom   44 type  1   force =    -0.09015912    0.09015746    0.09015746
     atom   45 type  1   force =    -0.00022741    0.00022655    0.11398593
     atom   46 type  1   force =     0.23022268   -0.23022268    0.59090012
     atom   47 type  1   force =    -0.20066079    0.20065918    0.55796315
     atom   48 type  1   force =    -0.18345300    0.18345257   -0.06241033
     atom   49 type  1   force =    -1.90290545    1.90290426   -1.94462267
     atom   50 type  1   force =    -0.16147397    0.16147488    0.04377799
     atom   51 type  1   force =     0.45847271   -0.16791189   -0.05675898
     atom   52 type  1   force =     1.94462153    1.90290649    1.90290414
     atom   53 type  1   force =    -0.20066102    0.55797051    0.20065940
     atom   54 type  1   force =    -0.19087614   -0.13231139    0.02828530
     atom   55 type  1   force =     0.13230898    0.02829193    0.19087382
     atom   56 type  1   force =    -0.04377982    0.16147155    0.16147155
     atom   57 type  1   force =    -0.02829041   -0.13231148    0.19087715
     atom   58 type  1   force =    -0.16147496    0.04377976    0.16147139
     atom   59 type  1   force =    -0.00022732    0.11398934    0.00022479
     atom   60 type  1   force =     0.06240693    0.18345078    0.18344985
     atom   61 type  1   force =     0.05675725   -0.16791208   -0.45847647
     atom   62 type  1   force =    -0.19087536    0.02828867   -0.13231233
     atom   63 type  2   force =     2.21217073   -2.21217073   -2.21217073
     The core correction contribution to forces
     atom    1 type  1   force =     0.00000000    0.00000000    0.00000000
     atom    2 type  1   force =     0.00000000    0.00000000    0.00000000
     atom    3 type  1   force =     0.00000000    0.00000000    0.00000000
     atom    4 type  1   force =     0.00000000    0.00000000    0.00000000
     atom    5 type  1   force =     0.00000000    0.00000000    0.00000000
     atom    6 type  1   force =     0.00000000    0.00000000    0.00000000
     atom    7 type  1   force =     0.00000000    0.00000000    0.00000000
     atom    8 type  1   force =     0.00000000    0.00000000    0.00000000
     atom    9 type  1   force =     0.00000000    0.00000000    0.00000000
     atom   10 type  1   force =     0.00000000    0.00000000    0.00000000
     atom   11 type  1   force =     0.00000000    0.00000000    0.00000000
     atom   12 type  1   force =     0.00000000    0.00000000    0.00000000
     atom   13 type  1   force =     0.00000000    0.00000000    0.00000000
     atom   14 type  1   force =     0.00000000    0.00000000    0.00000000
     atom   15 type  1   force =     0.00000000    0.00000000    0.00000000
     atom   16 type  1   force =     0.00000000    0.00000000    0.00000000
     atom   17 type  1   force =     0.00000000    0.00000000    0.00000000
     atom   18 type  1   force =     0.00000000    0.00000000    0.00000000
     atom   19 type  1   force =     0.00000000    0.00000000    0.00000000
     atom   20 type  1   force =     0.00000000    0.00000000    0.00000000
     atom   21 type  1   force =     0.00000000    0.00000000    0.00000000
     atom   22 type  1   force =     0.00000000    0.00000000    0.00000000
     atom   23 type  1   force =     0.00000000    0.00000000    0.00000000
     atom   24 type  1   force =     0.00000000    0.00000000    0.00000000
     atom   25 type  1   force =     0.00000000    0.00000000    0.00000000
     atom   26 type  1   force =     0.00000000    0.00000000    0.00000000
     atom   27 type  1   force =     0.00000000    0.00000000    0.00000000
     atom   28 type  1   force =     0.00000000    0.00000000    0.00000000
     atom   29 type  1   force =     0.00000000    0.00000000    0.00000000
     atom   30 type  1   force =     0.00000000    0.00000000    0.00000000
     atom   31 type  1   force =     0.00000000    0.00000000    0.00000000
     atom   32 type  1   force =     0.00000000    0.00000000    0.00000000
     atom   33 type  1   force =     0.00000000    0.00000000    0.00000000
     atom   34 type  1   force =     0.00000000    0.00000000    0.00000000
     atom   35 type  1   force =     0.00000000    0.00000000    0.00000000
     atom   36 type  1   force =     0.00000000    0.00000000    0.00000000
     atom   37 type  1   force =     0.00000000    0.00000000    0.00000000
     atom   38 type  1   force =     0.00000000    0.00000000    0.00000000
     atom   39 type  1   force =     0.00000000    0.00000000    0.00000000
     atom   40 type  1   force =     0.00000000    0.00000000    0.00000000
     atom   41 type  1   force =     0.00000000    0.00000000    0.00000000
     atom   42 type  1   force =     0.00000000    0.00000000    0.00000000
     atom   43 type  1   force =     0.00000000    0.00000000    0.00000000
     atom   44 type  1   force =     0.00000000    0.00000000    0.00000000
     atom   45 type  1   force =     0.00000000    0.00000000    0.00000000
     atom   46 type  1   force =     0.00000000    0.00000000    0.00000000
     atom   47 type  1   force =     0.00000000    0.00000000    0.00000000
     atom   48 type  1   force =     0.00000000    0.00000000    0.00000000
     atom   49 type  1   force =     0.00000000    0.00000000    0.00000000
     atom   50 type  1   force =     0.00000000    0.00000000    0.00000000
     atom   51 type  1   force =     0.00000000    0.00000000    0.00000000
     atom   52 type  1   force =     0.00000000    0.00000000    0.00000000
     atom   53 type  1   force =     0.00000000    0.00000000    0.00000000
     atom   54 type  1   force =     0.00000000    0.00000000    0.00000000
     atom   55 type  1   force =     0.00000000    0.00000000    0.00000000
     atom   56 type  1   force =     0.00000000    0.00000000    0.00000000
     atom   57 type  1   force =     0.00000000    0.00000000    0.00000000
     atom   58 type  1   force =     0.00000000    0.00000000    0.00000000
     atom   59 type  1   force =     0.00000000    0.00000000    0.00000000
[...]
     atom   10 type  1   force =     0.00000000    0.00000000    0.00000000
     atom   11 type  1   force =     0.00000000    0.00000000    0.00000000
     atom   12 type  1   force =     0.00000000    0.00000000    0.00000000
     atom   13 type  1   force =     0.00000000    0.00000000    0.00000000
     atom   14 type  1   force =     0.00000000    0.00000000    0.00000000
     atom   15 type  1   force =     0.00000000    0.00000000    0.00000000
     atom   16 type  1   force =     0.00000000    0.00000000    0.00000000
     atom   17 type  1   force =     0.00000000    0.00000000    0.00000000
     atom   18 type  1   force =     0.00000000    0.00000000    0.00000000
     atom   19 type  1   force =     0.00000000    0.00000000    0.00000000
     atom   20 type  1   force =     0.00000000    0.00000000    0.00000000
     atom   21 type  1   force =     0.00000000    0.00000000    0.00000000
     atom   22 type  1   force =     0.00000000    0.00000000    0.00000000
     atom   23 type  1   force =     0.00000000    0.00000000    0.00000000
     atom   24 type  1   force =     0.00000000    0.00000000    0.00000000
     atom   25 type  1   force =     0.00000000    0.00000000    0.00000000
     atom   26 type  1   force =     0.00000000    0.00000000    0.00000000
     atom   27 type  1   force =     0.00000000    0.00000000    0.00000000
     atom   28 type  1   force =     0.00000000    0.00000000    0.00000000
     atom   29 type  1   force =     0.00000000    0.00000000    0.00000000
     atom   30 type  1   force =     0.00000000    0.00000000    0.00000000
     atom   31 type  1   force =     0.00000000    0.00000000    0.00000000
     atom   32 type  1   force =     0.00000000    0.00000000    0.00000000
     atom   33 type  1   force =     0.00000000    0.00000000    0.00000000
     atom   34 type  1   force =     0.00000000    0.00000000    0.00000000
     atom   35 type  1   force =     0.00000000    0.00000000    0.00000000
     atom   36 type  1   force =     0.00000000    0.00000000    0.00000000
     atom   37 type  1   force =     0.00000000    0.00000000    0.00000000
     atom   38 type  1   force =     0.00000000    0.00000000    0.00000000
     atom   39 type  1   force =     0.00000000    0.00000000    0.00000000
     atom   40 type  1   force =     0.00000000    0.00000000    0.00000000
     atom   41 type  1   force =     0.00000000    0.00000000    0.00000000
     atom   42 type  1   force =     0.00000000    0.00000000    0.00000000
     atom   43 type  1   force =     0.00000000    0.00000000    0.00000000
     atom   44 type  1   force =     0.00000000    0.00000000    0.00000000
     atom   45 type  1   force =     0.00000000    0.00000000    0.00000000
     atom   46 type  1   force =     0.00000000    0.00000000    0.00000000
     atom   47 type  1   force =     0.00000000    0.00000000    0.00000000
     atom   48 type  1   force =     0.00000000    0.00000000    0.00000000
     atom   49 type  1   force =     0.00000000    0.00000000    0.00000000
     atom   50 type  1   force =     0.00000000    0.00000000    0.00000000
     atom   51 type  1   force =     0.00000000    0.00000000    0.00000000
     atom   52 type  1   force =     0.00000000    0.00000000    0.00000000
     atom   53 type  1   force =     0.00000000    0.00000000    0.00000000
     atom   54 type  1   force =     0.00000000    0.00000000    0.00000000
     atom   55 type  1   force =     0.00000000    0.00000000    0.00000000
     atom   56 type  1   force =     0.00000000    0.00000000    0.00000000
     atom   57 type  1   force =     0.00000000    0.00000000    0.00000000
     atom   58 type  1   force =     0.00000000    0.00000000    0.00000000
     atom   59 type  1   force =     0.00000000    0.00000000    0.00000000
     atom   60 type  1   force =     0.00000000    0.00000000    0.00000000
     atom   61 type  1   force =     0.00000000    0.00000000    0.00000000
     atom   62 type  1   force =     0.00000000    0.00000000    0.00000000
     atom   63 type  2   force =     0.00000000    0.00000000    0.00000000
     The Hubbard contrib.    to forces
     atom    1 type  1   force =     0.00000000    0.00000000    0.00000000
     atom    2 type  1   force =     0.00000000    0.00000000    0.00000000
     atom    3 type  1   force =     0.00000000    0.00000000    0.00000000
     atom    4 type  1   force =     0.00000000    0.00000000    0.00000000
     atom    5 type  1   force =     0.00000000    0.00000000    0.00000000
     atom    6 type  1   force =     0.00000000    0.00000000    0.00000000
     atom    7 type  1   force =     0.00000000    0.00000000    0.00000000
     atom    8 type  1   force =     0.00000000    0.00000000    0.00000000
     atom    9 type  1   force =     0.00000000    0.00000000    0.00000000
     atom   10 type  1   force =     0.00000000    0.00000000    0.00000000
     atom   11 type  1   force =     0.00000000    0.00000000    0.00000000
     atom   12 type  1   force =     0.00000000    0.00000000    0.00000000
     atom   13 type  1   force =     0.00000000    0.00000000    0.00000000
     atom   14 type  1   force =     0.00000000    0.00000000    0.00000000
     atom   15 type  1   force =     0.00000000    0.00000000    0.00000000
     atom   16 type  1   force =     0.00000000    0.00000000    0.00000000
     atom   17 type  1   force =     0.00000000    0.00000000    0.00000000
     atom   18 type  1   force =     0.00000000    0.00000000    0.00000000
     atom   19 type  1   force =     0.00000000    0.00000000    0.00000000
     atom   20 type  1   force =     0.00000000    0.00000000    0.00000000
     atom   21 type  1   force =     0.00000000    0.00000000    0.00000000
     atom   22 type  1   force =     0.00000000    0.00000000    0.00000000
     atom   23 type  1   force =     0.00000000    0.00000000    0.00000000
     atom   24 type  1   force =     0.00000000    0.00000000    0.00000000
     atom   25 type  1   force =     0.00000000    0.00000000    0.00000000
     atom   26 type  1   force =     0.00000000    0.00000000    0.00000000
     atom   27 type  1   force =     0.00000000    0.00000000    0.00000000
     atom   28 type  1   force =     0.00000000    0.00000000    0.00000000
     atom   29 type  1   force =     0.00000000    0.00000000    0.00000000
     atom   30 type  1   force =     0.00000000    0.00000000    0.00000000
     atom   31 type  1   force =     0.00000000    0.00000000    0.00000000
     atom   32 type  1   force =     0.00000000    0.00000000    0.00000000
     atom   33 type  1   force =     0.00000000    0.00000000    0.00000000
     atom   34 type  1   force =     0.00000000    0.00000000    0.00000000
     atom   35 type  1   force =     0.00000000    0.00000000    0.00000000
     atom   36 type  1   force =     0.00000000    0.00000000    0.00000000
     atom   37 type  1   force =     0.00000000    0.00000000    0.00000000
     atom   38 type  1   force =     0.00000000    0.00000000    0.00000000
     atom   39 type  1   force =     0.00000000    0.00000000    0.00000000
     atom   40 type  1   force =     0.00000000    0.00000000    0.00000000
     atom   41 type  1   force =     0.00000000    0.00000000    0.00000000
     atom   42 type  1   force =     0.00000000    0.00000000    0.00000000
     atom   43 type  1   force =     0.00000000    0.00000000    0.00000000
     atom   44 type  1   force =     0.00000000    0.00000000    0.00000000
     atom   45 type  1   force =     0.00000000    0.00000000    0.00000000
     atom   46 type  1   force =     0.00000000    0.00000000    0.00000000
     atom   47 type  1   force =     0.00000000    0.00000000    0.00000000
     atom   48 type  1   force =     0.00000000    0.00000000    0.00000000
     atom   49 type  1   force =     0.00000000    0.00000000    0.00000000
     atom   50 type  1   force =     0.00000000    0.00000000    0.00000000
     atom   51 type  1   force =     0.00000000    0.00000000    0.00000000
     atom   52 type  1   force =     0.00000000    0.00000000    0.00000000
     atom   53 type  1   force =     0.00000000    0.00000000    0.00000000
     atom   54 type  1   force =     0.00000000    0.00000000    0.00000000
     atom   55 type  1   force =     0.00000000    0.00000000    0.00000000
     atom   56 type  1   force =     0.00000000    0.00000000    0.00000000
     atom   57 type  1   force =     0.00000000    0.00000000    0.00000000
     atom   58 type  1   force =     0.00000000    0.00000000    0.00000000
     atom   59 type  1   force =     0.00000000    0.00000000    0.00000000
     atom   60 type  1   force =     0.00000000    0.00000000    0.00000000
     atom   61 type  1   force =     0.00000000    0.00000000    0.00000000
     atom   62 type  1   force =     0.00000000    0.00000000    0.00000000
     atom   63 type  2   force =     0.00000000    0.00000000    0.00000000
     The SCF correction term to forces
     atom    1 type  1   force =    -0.00000035    0.00000035    0.00000035
     atom    2 type  1   force =     0.00000033   -0.00000033    0.00000031
     atom    3 type  1   force =     0.00000028   -0.00000028    0.00000041
     atom    4 type  1   force =    -0.00000034    0.00000034    0.00000040
     atom    5 type  1   force =    -0.00000031   -0.00000033   -0.00000033
     atom    6 type  1   force =     0.00000065   -0.00000040   -0.00000065
     atom    7 type  1   force =     0.00000024    0.00000051   -0.00000052
     atom    8 type  1   force =    -0.00000034    0.00000027   -0.00000028
     atom    9 type  1   force =    -0.00000041   -0.00000028   -0.00000028
     atom   10 type  1   force =     0.00000052    0.00000051   -0.00000024
     atom   11 type  1   force =     0.00000028    0.00000041   -0.00000028
     atom   12 type  1   force =    -0.00000051   -0.00000052   -0.00000024
     atom   13 type  1   force =    -0.00000040    0.00000034    0.00000034
     atom   14 type  1   force =     0.00000028    0.00000027    0.00000034
     atom   15 type  1   force =     0.00000024   -0.00000052    0.00000051
     atom   16 type  1   force =    -0.00000062   -0.00000038    0.00000062
     atom   17 type  1   force =     0.00000033    0.00000031   -0.00000033
     atom   18 type  1   force =     0.00000040   -0.00000065   -0.00000065
     atom   19 type  1   force =    -0.00000051   -0.00000024   -0.00000052
     atom   20 type  1   force =    -0.00000027    0.00000034   -0.00000028
     atom   21 type  1   force =     0.00000065   -0.00000065   -0.00000040
     atom   22 type  1   force =    -0.00000062    0.00000062   -0.00000038
     atom   23 type  1   force =    -0.00000020    0.00000020   -0.00000033
     atom   24 type  1   force =     0.00000052   -0.00000024    0.00000051
     atom   25 type  1   force =     0.00000038    0.00000062    0.00000062
     atom   26 type  1   force =    -0.00000034    0.00000040    0.00000034
     atom   27 type  1   force =    -0.00000027   -0.00000028    0.00000034
     atom   28 type  1   force =     0.00000028    0.00000034    0.00000027
     atom   29 type  1   force =     0.00000033    0.00000020    0.00000020
     atom   30 type  1   force =    -0.00000034   -0.00000028    0.00000027
     atom   31 type  1   force =    -0.00000020   -0.00000033    0.00000020
     atom   32 type  1   force =    -0.00000033   -0.00000013   -0.00000013
     atom   33 type  1   force =     0.00000012   -0.00000057   -0.00000012
     atom   34 type  1   force =     0.00000037    0.00000014   -0.00000035
     atom   35 type  1   force =    -0.00000013    0.00000042   -0.00000000
     atom   36 type  1   force =    -0.00000067   -0.00000042   -0.00000042
     atom   37 type  1   force =     0.00000035    0.00000014   -0.00000037
     atom   38 type  1   force =     0.00000042    0.00000067   -0.00000042
     atom   39 type  1   force =    -0.00000014   -0.00000035   -0.00000037
     atom   40 type  1   force =    -0.00000087    0.00000016    0.00000016
     atom   41 type  1   force =     0.00000000    0.00000042    0.00000013
     atom   42 type  1   force =     0.00000037   -0.00000035    0.00000014
     atom   43 type  1   force =    -0.00000042   -0.00000080    0.00000042
     atom   44 type  1   force =    -0.00000040    0.00000040    0.00000040
     atom   45 type  1   force =     0.00000013   -0.00000013    0.00000033
     atom   46 type  1   force =     0.00000042   -0.00000042    0.00000067
     atom   47 type  1   force =    -0.00000016    0.00000016    0.00000087
     atom   48 type  1   force =     0.00000012   -0.00000012   -0.00000057
     atom   49 type  1   force =    -0.00000042    0.00000042   -0.00000080
     atom   50 type  1   force =    -0.00000046    0.00000046   -0.00000047
     atom   51 type  1   force =     0.00000035   -0.00000037    0.00000014
     atom   52 type  1   force =     0.00000080    0.00000042    0.00000042
     atom   53 type  1   force =    -0.00000016    0.00000087    0.00000016
     atom   54 type  1   force =    -0.00000042   -0.00000000    0.00000013
     atom   55 type  1   force =     0.00000000    0.00000013    0.00000042
     atom   56 type  1   force =     0.00000047    0.00000046    0.00000046
     atom   57 type  1   force =    -0.00000013   -0.00000000    0.00000042
     atom   58 type  1   force =    -0.00000046   -0.00000047    0.00000046
     atom   59 type  1   force =     0.00000013    0.00000033   -0.00000013
     atom   60 type  1   force =     0.00000057   -0.00000012   -0.00000012
     atom   61 type  1   force =    -0.00000014   -0.00000037   -0.00000035
     atom   62 type  1   force =    -0.00000042    0.00000013   -0.00000000
     atom   63 type  2   force =     0.00000094   -0.00000094   -0.00000094

     Total force =     0.000518     Total SCF correction =     0.000006

     bfgs converged in   5 scf cycles and   4 bfgs steps
     (criteria: energy <  1.0E-05 Ry, force <  1.0E-04 Ry/Bohr)

     End of BFGS Geometry Optimization

     Final energy   =    -724.8283071223 Ry
Begin final coordinates

ATOMIC_POSITIONS (crystal)
C        0.000136062  -0.000136062  -0.000136062
C        0.750043892   0.249956141  -0.001287443
C        0.499857151   0.500142849   0.000141773
C        0.250096613   0.749903354   0.000274295
C        0.001287443   0.249956141   0.249956174
C        0.749688782   0.494292907   0.250311284
C        0.498521680   0.748057569   0.252780141
C        0.251056460   0.000895718   0.250399370
C       -0.000141773   0.500142849   0.500142916
C        0.747219892   0.748057569   0.501478387
C        0.499857151   0.000141773   0.500142849
C        0.251942431   0.252780124   0.501478387
C       -0.000274295   0.749903354   0.749903354
C        0.749600663   0.000895718   0.748943507
C        0.498521680   0.252780108   0.748057635
C        0.250348293   0.499408348   0.749651740
C        0.750043892  -0.001287443   0.249956174
C        0.505707093   0.250311284   0.250311251
C        0.251942398   0.501478320   0.252780174
C       -0.000895718   0.748943507   0.250399403
C        0.749688782   0.250311234   0.494292974
C        0.250348293   0.749651674   0.499408448
C       -0.000018787   0.000018787   0.499957232
C        0.747219892   0.501478320   0.748057569
C        0.500591686   0.749651674   0.749651674
C        0.250096646   0.000274295   0.749903420
C       -0.000895718   0.250399370   0.748943507
C        0.749600663   0.748943507   0.000895718
C        0.500042768   0.000018787   0.000018787
C        0.251056460   0.250399370   0.000895718
C       -0.000018787   0.499957232   0.000018787
C        0.125893286   0.125174515   0.125174532
C        0.876488390   0.374682508   0.123511660
C        0.623746892   0.622851209   0.127221033
C        0.375659450   0.875573144   0.124826366
C        0.126070938   0.375536588   0.375536622
C        0.872778967   0.622851209   0.376253175
C        0.624463412   0.873929045   0.375536622
C        0.377148825   0.127221008   0.376253108
C        0.125091491   0.625101545   0.625101612
C        0.875173701   0.875573144   0.624340584
C        0.623746892   0.127221033   0.622851209
C        0.366219712   0.369912549   0.633780322
C        0.125067457   0.874932576   0.874932576
C        0.874825535   0.125174482   0.874106764
C        0.624463412   0.375536588   0.873929112
C        0.374898422   0.625101612   0.874908559
C        0.876488390   0.123511618   0.374682575
C        0.366219712   0.633780322   0.369912583
C        0.124049674   0.875950309   0.376011876
C        0.872779034   0.376253108   0.622851209
C        0.630087451   0.633780255   0.633780322
C        0.374898422   0.874908425   0.625101612
C        0.124426839   0.124826349   0.624340651
C        0.875173701   0.624340517   0.875573211
C        0.623988158   0.875950376   0.875950376
C        0.375659450   0.124826349   0.875573144
C        0.124049691   0.376011842   0.875950376
C        0.874825535   0.874106697   0.125174515
C        0.625317492   0.123511660   0.123511677
C        0.377148825   0.376253108   0.127221033
C        0.124426822   0.624340584   0.124826366
N        0.636453314   0.363546686   0.363546686
End final coordinates



     Writing output data file di.save
 
     init_run     :      0.96s CPU      1.40s WALL (       1 calls)
     electrons    :     51.55s CPU     54.74s WALL (       5 calls)
     update_pot   :      0.47s CPU      0.77s WALL (       4 calls)
     forces       :      0.98s CPU      1.02s WALL (       5 calls)

     Called by init_run:
     wfcinit      :      0.35s CPU      0.51s WALL (       1 calls)
     wfcinit:atom :      0.00s CPU      0.00s WALL (       1 calls)
     wfcinit:wfcr :      0.33s CPU      0.47s WALL (       1 calls)
     potinit      :      0.14s CPU      0.18s WALL (       1 calls)

     Called by electrons:
     c_bands      :     44.96s CPU     47.48s WALL (      52 calls)
     sum_band     :      3.69s CPU      3.81s WALL (      52 calls)
     v_of_rho     :      1.98s CPU      2.02s WALL (      53 calls)
     v_h          :      0.07s CPU      0.07s WALL (      53 calls)
     v_xc         :      1.91s CPU      1.95s WALL (      53 calls)
     mix_rho      :      0.46s CPU      0.48s WALL (      52 calls)

     Called by c_bands:
     init_us_2    :      0.61s CPU      0.62s WALL (     105 calls)
     cegterg      :     40.36s CPU     42.69s WALL (      52 calls)

     Called by sum_band:

     Called by *egterg:
     h_psi        :     22.32s CPU     22.86s WALL (     243 calls)
     g_psi        :      0.11s CPU      0.12s WALL (     190 calls)
     cdiaghg      :      9.29s CPU      9.88s WALL (     234 calls)
     cegterg:over :      3.20s CPU      3.27s WALL (     190 calls)
     cegterg:upda :      3.27s CPU      3.28s WALL (     190 calls)
     cegterg:last :      1.28s CPU      1.29s WALL (      54 calls)
     cdiaghg:chol :      0.91s CPU      1.06s WALL (     234 calls)
     cdiaghg:inve :      0.54s CPU      0.55s WALL (     234 calls)
     cdiaghg:para :      0.80s CPU      0.95s WALL (     468 calls)

     Called by h_psi:
     h_psi:pot    :     21.95s CPU     22.48s WALL (     243 calls)
     h_psi:calbec :      3.91s CPU      4.04s WALL (     243 calls)
     vloc_psi     :     14.22s CPU     14.54s WALL (     243 calls)
     add_vuspsi   :      3.81s CPU      3.89s WALL (     243 calls)

     General routines
     calbec       :      4.45s CPU      4.58s WALL (     263 calls)
     fft          :      0.83s CPU      1.07s WALL (    1124 calls)
     fftw         :     15.12s CPU     15.46s WALL (   49220 calls)
 
     Parallel routines
     fft_scatter  :      6.03s CPU      6.19s WALL (   50344 calls)
 
     PWSCF        :  0m57.69s CPU     1m 6.59s WALL

 
   This run was terminated on:   8:39:45   2Aug2019            

=------------------------------------------------------------------------------=
   JOB DONE.
=------------------------------------------------------------------------------=
