
     Program PWSCF v.6.1 (svn rev. 13369) starts on  2Aug2019 at  8:38:41 

     This program is part of the open-source Quantum ESPRESSO suite
     for quantum simulation of materials; please cite
         "P. Giannozzi et al., J. Phys.:Condens. Matter 21 395502 (2009);
          URL http://www.quantum-espresso.org", 
     in publications or presentations arising from this work. More details at
     http://www.quantum-espresso.org/quote

     Parallel version (MPI), running on   288 processors
     K-points division:     npool     =       8
     R & G space division:  proc/nbgrp/npool/nimage =      36
     Reading input from relax.in

     Current dimensions of program PWSCF are:
     Max number of different atomic species (ntypx) = 10
     Max number of k-points (npk) =  40000
     Max angular momentum in pseudopotentials (lmaxx) =  3

     Subspace diagonalization in iterative solution of the eigenvalue problem:
     one sub-group per band group will be used
     scalapack distributed-memory algorithm (size of sub-group:  4*  4 procs)

 
     Parallelization info
     --------------------
     sticks:   dense  smooth     PW     G-vecs:    dense   smooth      PW
     Min         160     160     43                 9196     9196    1295
     Max         161     161     44                 9203     9203    1300
     Sum        5761    5761   1565               331093   331093   46681
 


     bravais-lattice index     =            0
     lattice parameter (alat)  =      13.4862  a.u.
     unit-cell volume          =    2452.8359 (a.u.)^3
     number of atoms/cell      =           63
     number of atomic types    =            2
     number of electrons       =       254.00 (up: 128.00, down: 126.00)
     number of Kohn-Sham states=          152
     kinetic-energy cutoff     =     100.0000  Ry
     charge density cutoff     =     400.0000  Ry
     convergence threshold     =      1.0E-09
     mixing beta               =       0.5000
     number of iterations used =            8  plain     mixing
     Exchange-correlation      = PBE ( 1  4  3  4 0 0)
     nstep                     =           50


     celldm(1)=  13.486197  celldm(2)=   0.000000  celldm(3)=   0.000000
     celldm(4)=   0.000000  celldm(5)=   0.000000  celldm(6)=   0.000000

     crystal axes: (cart. coord. in units of alat)
               a(1) = (   1.000000   0.000000   0.000000 )  
               a(2) = (   0.000000   1.000000   0.000000 )  
               a(3) = (   0.000000   0.000000   1.000000 )  

     reciprocal axes: (cart. coord. in units 2 pi/alat)
               b(1) = (  1.000000  0.000000  0.000000 )  
               b(2) = (  0.000000  1.000000  0.000000 )  
               b(3) = (  0.000000  0.000000  1.000000 )  


     PseudoPot. # 1 for C  read from file:
     /g/g13/smart8/Pseudo/C_ONCV_PBE-1.0.upf
     MD5 check sum: 72b63e32b2fd29504de26a4901699f60
     Pseudo is Norm-conserving, Zval =  4.0
     Generated using ONCVPSP code by D. R. Hamann
     Using radial grid of 1248 points,  4 beta functions with: 
                l(1) =   0
                l(2) =   0
                l(3) =   1
                l(4) =   1

     PseudoPot. # 2 for N  read from file:
     /g/g13/smart8/Pseudo/N_ONCV_PBE-1.0.upf
     MD5 check sum: 09890da6b2972017450f7114a6086fad
     Pseudo is Norm-conserving, Zval =  5.0
     Generated using ONCVPSP code by D. R. Hamann
     Using radial grid of 1058 points,  4 beta functions with: 
                l(1) =   0
                l(2) =   0
                l(3) =   1
                l(4) =   1

     atomic species   valence    mass     pseudopotential
        C              4.00    12.01110     C ( 1.00)
        N              5.00    14.00670     N ( 1.00)

     Starting magnetic structure 
     atomic species   magnetization
        C            0.000
        N            1.000

      6 Sym. Ops. (no inversion) found


                                    s                        frac. trans.

      isym =  1     identity                                     

 cryst.   s( 1) = (     1          0          0      )
                  (     0          1          0      )
                  (     0          0          1      )

 cart.    s( 1) = (  1.0000000  0.0000000  0.0000000 )
                  (  0.0000000  1.0000000  0.0000000 )
                  (  0.0000000  0.0000000  1.0000000 )


      isym =  2     120 deg rotation - cart. axis [-1,1,1]       

 cryst.   s( 2) = (     0          0         -1      )
                  (    -1          0          0      )
                  (     0          1          0      )

 cart.    s( 2) = (  0.0000000 -1.0000000  0.0000000 )
                  (  0.0000000  0.0000000  1.0000000 )
                  ( -1.0000000  0.0000000  0.0000000 )


      isym =  3     120 deg rotation - cart. axis [1,-1,-1]      

 cryst.   s( 3) = (     0         -1          0      )
                  (     0          0          1      )
                  (    -1          0          0      )

 cart.    s( 3) = (  0.0000000  0.0000000 -1.0000000 )
                  ( -1.0000000  0.0000000  0.0000000 )
                  (  0.0000000  1.0000000  0.0000000 )


      isym =  4     inv. 180 deg rotation - cart. axis [1,1,0]   

 cryst.   s( 4) = (     0         -1          0      )
                  (    -1          0          0      )
                  (     0          0          1      )

 cart.    s( 4) = (  0.0000000 -1.0000000  0.0000000 )
                  ( -1.0000000  0.0000000  0.0000000 )
                  (  0.0000000  0.0000000  1.0000000 )


      isym =  5     inv. 180 deg rotation - cart. axis [1,0,1]   

 cryst.   s( 5) = (     0          0         -1      )
                  (     0          1          0      )
                  (    -1          0          0      )

 cart.    s( 5) = (  0.0000000  0.0000000 -1.0000000 )
                  (  0.0000000  1.0000000  0.0000000 )
                  ( -1.0000000  0.0000000  0.0000000 )


      isym =  6     inv. 180 deg rotation - cart. axis [0,1,-1]  

 cryst.   s( 6) = (     1          0          0      )
                  (     0          0          1      )
                  (     0          1          0      )

 cart.    s( 6) = (  1.0000000  0.0000000  0.0000000 )
                  (  0.0000000  0.0000000  1.0000000 )
                  (  0.0000000  1.0000000  0.0000000 )


   Cartesian axes

     site n.     atom                  positions (alat units)
         1           C   tau(   1) = (   0.0001471  -0.0001471  -0.0001471  )
         2           C   tau(   2) = (   0.7496408   0.2503593  -0.0008934  )
         3           C   tau(   3) = (   0.5000834   0.4999166  -0.0005072  )
         4           C   tau(   4) = (   0.2504493   0.7495507  -0.0008852  )
         5           C   tau(   5) = (   0.0008934   0.2503593   0.2503593  )
         6           C   tau(   6) = (   0.7485095   0.4964412   0.2514906  )
         7           C   tau(   7) = (   0.4978091   0.7487320   0.2508993  )
         8           C   tau(   8) = (   0.2508551   0.0008596   0.2500575  )
         9           C   tau(   9) = (   0.0005072   0.4999166   0.4999167  )
        10           C   tau(  10) = (   0.7491007   0.7487320   0.5021910  )
        11           C   tau(  11) = (   0.5000834  -0.0005072   0.4999166  )
        12           C   tau(  12) = (   0.2512680   0.2508993   0.5021910  )
        13           C   tau(  13) = (   0.0008852   0.7495507   0.7495507  )
        14           C   tau(  14) = (   0.7499425   0.0008596   0.7491449  )
        15           C   tau(  15) = (   0.4978091   0.2508993   0.7487321  )
        16           C   tau(  16) = (   0.2513219   0.4982670   0.7486781  )
        17           C   tau(  17) = (   0.7496408  -0.0008934   0.2503593  )
        18           C   tau(  18) = (   0.5035588   0.2514906   0.2514906  )
        19           C   tau(  19) = (   0.2512679   0.5021909   0.2508993  )
        20           C   tau(  20) = (  -0.0008596   0.7491449   0.2500576  )
        21           C   tau(  21) = (   0.7485095   0.2514906   0.4964412  )
        22           C   tau(  22) = (   0.2513219   0.7486781   0.4982671  )
        23           C   tau(  23) = (  -0.0005589   0.0005589   0.5002004  )
        24           C   tau(  24) = (   0.7491007   0.5021909   0.7487320  )
        25           C   tau(  25) = (   0.5017331   0.7486781   0.7486781  )
        26           C   tau(  26) = (   0.2504493  -0.0008852   0.7495507  )
        27           C   tau(  27) = (  -0.0008596   0.2500575   0.7491449  )
        28           C   tau(  28) = (   0.7499425   0.7491449   0.0008596  )
        29           C   tau(  29) = (   0.4997996   0.0005589   0.0005589  )
        30           C   tau(  30) = (   0.2508551   0.2500575   0.0008596  )
        31           C   tau(  31) = (  -0.0005589   0.5002004   0.0005589  )
        32           C   tau(  32) = (   0.1256024   0.1252966   0.1252966  )
        33           C   tau(  33) = (   0.8753819   0.3747495   0.1246182  )
        34           C   tau(  34) = (   0.6235839   0.6234915   0.1265028  )
        35           C   tau(  35) = (   0.3757077   0.8762336   0.1234866  )
        36           C   tau(  36) = (   0.1264496   0.3756972   0.3756973  )
        37           C   tau(  37) = (   0.8734972   0.6234915   0.3764162  )
        38           C   tau(  38) = (   0.6243028   0.8735504   0.3756973  )
        39           C   tau(  39) = (   0.3765085   0.1265028   0.3764161  )
        40           C   tau(  40) = (   0.1263419   0.6242391   0.6242392  )
        41           C   tau(  41) = (   0.8765134   0.8762336   0.6242923  )
        42           C   tau(  42) = (   0.6235839   0.1265028   0.6234915  )
        43           C   tau(  43) = (   0.3633548   0.3617071   0.6366452  )
        44           C   tau(  44) = (   0.1255014   0.8744987   0.8744987  )
        45           C   tau(  45) = (   0.8747035   0.1252965   0.8743976  )
        46           C   tau(  46) = (   0.6243028   0.3756972   0.8735505  )
        47           C   tau(  47) = (   0.3757608   0.6242392   0.8736582  )
        48           C   tau(  48) = (   0.8753819   0.1246181   0.3747495  )
        49           C   tau(  49) = (   0.3633548   0.6366452   0.3617071  )
        50           C   tau(  50) = (   0.1236925   0.8763075   0.3756017  )
        51           C   tau(  51) = (   0.8734973   0.3764161   0.6234915  )
        52           C   tau(  52) = (   0.6382929   0.6366452   0.6366452  )
        53           C   tau(  53) = (   0.3757608   0.8736581   0.6242392  )
        54           C   tau(  54) = (   0.1237663   0.1234866   0.6242924  )
        55           C   tau(  55) = (   0.8765134   0.6242922   0.8762337  )
        56           C   tau(  56) = (   0.6243983   0.8763076   0.8763076  )
        57           C   tau(  57) = (   0.3757077   0.1234866   0.8762336  )
        58           C   tau(  58) = (   0.1236925   0.3756017   0.8763076  )
        59           C   tau(  59) = (   0.8747035   0.8743975   0.1252966  )
        60           C   tau(  60) = (   0.6252505   0.1246182   0.1246182  )
        61           C   tau(  61) = (   0.3765085   0.3764161   0.1265028  )
        62           C   tau(  62) = (   0.1237663   0.6242923   0.1234866  )
        63           N   tau(  63) = (   0.6319693   0.3680307   0.3680307  )

   Crystallographic axes

     site n.     atom                  positions (cryst. coord.)
         1           C   tau(   1) = (  0.0001471 -0.0001471 -0.0001471  )
         2           C   tau(   2) = (  0.7496408  0.2503593 -0.0008934  )
         3           C   tau(   3) = (  0.5000834  0.4999166 -0.0005072  )
         4           C   tau(   4) = (  0.2504493  0.7495507 -0.0008852  )
         5           C   tau(   5) = (  0.0008934  0.2503593  0.2503593  )
         6           C   tau(   6) = (  0.7485095  0.4964412  0.2514906  )
         7           C   tau(   7) = (  0.4978091  0.7487320  0.2508993  )
         8           C   tau(   8) = (  0.2508551  0.0008596  0.2500575  )
         9           C   tau(   9) = (  0.0005072  0.4999166  0.4999167  )
        10           C   tau(  10) = (  0.7491007  0.7487320  0.5021910  )
        11           C   tau(  11) = (  0.5000834 -0.0005072  0.4999166  )
        12           C   tau(  12) = (  0.2512680  0.2508993  0.5021910  )
        13           C   tau(  13) = (  0.0008852  0.7495507  0.7495507  )
        14           C   tau(  14) = (  0.7499425  0.0008596  0.7491449  )
        15           C   tau(  15) = (  0.4978091  0.2508993  0.7487321  )
        16           C   tau(  16) = (  0.2513219  0.4982670  0.7486781  )
        17           C   tau(  17) = (  0.7496408 -0.0008934  0.2503593  )
        18           C   tau(  18) = (  0.5035588  0.2514906  0.2514906  )
        19           C   tau(  19) = (  0.2512679  0.5021909  0.2508993  )
        20           C   tau(  20) = ( -0.0008596  0.7491449  0.2500576  )
        21           C   tau(  21) = (  0.7485095  0.2514906  0.4964412  )
        22           C   tau(  22) = (  0.2513219  0.7486781  0.4982671  )
        23           C   tau(  23) = ( -0.0005589  0.0005589  0.5002004  )
        24           C   tau(  24) = (  0.7491007  0.5021909  0.7487320  )
        25           C   tau(  25) = (  0.5017331  0.7486781  0.7486781  )
        26           C   tau(  26) = (  0.2504493 -0.0008852  0.7495507  )
        27           C   tau(  27) = ( -0.0008596  0.2500575  0.7491449  )
        28           C   tau(  28) = (  0.7499425  0.7491449  0.0008596  )
        29           C   tau(  29) = (  0.4997996  0.0005589  0.0005589  )
        30           C   tau(  30) = (  0.2508551  0.2500575  0.0008596  )
        31           C   tau(  31) = ( -0.0005589  0.5002004  0.0005589  )
        32           C   tau(  32) = (  0.1256024  0.1252966  0.1252966  )
        33           C   tau(  33) = (  0.8753819  0.3747495  0.1246182  )
        34           C   tau(  34) = (  0.6235839  0.6234915  0.1265028  )
        35           C   tau(  35) = (  0.3757077  0.8762336  0.1234866  )
        36           C   tau(  36) = (  0.1264496  0.3756972  0.3756973  )
        37           C   tau(  37) = (  0.8734972  0.6234915  0.3764162  )
        38           C   tau(  38) = (  0.6243028  0.8735504  0.3756973  )
        39           C   tau(  39) = (  0.3765085  0.1265028  0.3764161  )
        40           C   tau(  40) = (  0.1263419  0.6242391  0.6242392  )
        41           C   tau(  41) = (  0.8765134  0.8762336  0.6242923  )
        42           C   tau(  42) = (  0.6235839  0.1265028  0.6234915  )
        43           C   tau(  43) = (  0.3633548  0.3617071  0.6366452  )
        44           C   tau(  44) = (  0.1255014  0.8744987  0.8744987  )
        45           C   tau(  45) = (  0.8747035  0.1252965  0.8743976  )
        46           C   tau(  46) = (  0.6243028  0.3756972  0.8735505  )
        47           C   tau(  47) = (  0.3757608  0.6242392  0.8736582  )
        48           C   tau(  48) = (  0.8753819  0.1246181  0.3747495  )
        49           C   tau(  49) = (  0.3633548  0.6366452  0.3617071  )
        50           C   tau(  50) = (  0.1236925  0.8763075  0.3756017  )
        51           C   tau(  51) = (  0.8734973  0.3764161  0.6234915  )
        52           C   tau(  52) = (  0.6382929  0.6366452  0.6366452  )
        53           C   tau(  53) = (  0.3757608  0.8736581  0.6242392  )
        54           C   tau(  54) = (  0.1237663  0.1234866  0.6242924  )
        55           C   tau(  55) = (  0.8765134  0.6242922  0.8762337  )
        56           C   tau(  56) = (  0.6243983  0.8763076  0.8763076  )
        57           C   tau(  57) = (  0.3757077  0.1234866  0.8762336  )
        58           C   tau(  58) = (  0.1236925  0.3756017  0.8763076  )
        59           C   tau(  59) = (  0.8747035  0.8743975  0.1252966  )
        60           C   tau(  60) = (  0.6252505  0.1246182  0.1246182  )
        61           C   tau(  61) = (  0.3765085  0.3764161  0.1265028  )
        62           C   tau(  62) = (  0.1237663  0.6242923  0.1234866  )
        63           N   tau(  63) = (  0.6319693  0.3680307  0.3680307  )

     number of k points=     4
                       cart. coord. in units 2pi/alat
        k(    1) = (   0.0000000   0.0000000   0.0000000), wk =   0.1250000
        k(    2) = (   0.0000000   0.0000000  -0.5000000), wk =   0.3750000
        k(    3) = (   0.0000000  -0.5000000  -0.5000000), wk =   0.3750000
        k(    4) = (  -0.5000000  -0.5000000  -0.5000000), wk =   0.1250000

                       cryst. coord.
        k(    1) = (   0.0000000   0.0000000   0.0000000), wk =   0.1250000
        k(    2) = (   0.0000000   0.0000000  -0.5000000), wk =   0.3750000
        k(    3) = (   0.0000000  -0.5000000  -0.5000000), wk =   0.3750000
        k(    4) = (  -0.5000000  -0.5000000  -0.5000000), wk =   0.1250000

     Dense  grid:   331093 G-vectors     FFT dimensions: (  90,  90,  90)

     Occupations read from input 

      Spin-up

        1.0000   1.0000   1.0000   1.0000   1.0000   1.0000   1.0000   1.0000
        1.0000   1.0000   1.0000   1.0000   1.0000   1.0000   1.0000   1.0000
        1.0000   1.0000   1.0000   1.0000   1.0000   1.0000   1.0000   1.0000
        1.0000   1.0000   1.0000   1.0000   1.0000   1.0000   1.0000   1.0000
        1.0000   1.0000   1.0000   1.0000   1.0000   1.0000   1.0000   1.0000
        1.0000   1.0000   1.0000   1.0000   1.0000   1.0000   1.0000   1.0000
        1.0000   1.0000   1.0000   1.0000   1.0000   1.0000   1.0000   1.0000
        1.0000   1.0000   1.0000   1.0000   1.0000   1.0000   1.0000   1.0000
        1.0000   1.0000   1.0000   1.0000   1.0000   1.0000   1.0000   1.0000
        1.0000   1.0000   1.0000   1.0000   1.0000   1.0000   1.0000   1.0000
        1.0000   1.0000   1.0000   1.0000   1.0000   1.0000   1.0000   1.0000
        1.0000   1.0000   1.0000   1.0000   1.0000   1.0000   1.0000   1.0000
        1.0000   1.0000   1.0000   1.0000   1.0000   1.0000   1.0000   1.0000
        1.0000   1.0000   1.0000   1.0000   1.0000   1.0000   1.0000   1.0000
        1.0000   1.0000   1.0000   1.0000   1.0000   1.0000   1.0000   1.0000
        1.0000   1.0000   1.0000   1.0000   1.0000   1.0000   1.0000   1.0000
        0.0000   0.0000   0.0000   0.0000   0.0000   0.0000   0.0000   0.0000
        0.0000   0.0000   0.0000   0.0000   0.0000   0.0000   0.0000   0.0000
        0.0000   0.0000   0.0000   0.0000   0.0000   0.0000   0.0000   0.0000

      Spin-down

        1.0000   1.0000   1.0000   1.0000   1.0000   1.0000   1.0000   1.0000
        1.0000   1.0000   1.0000   1.0000   1.0000   1.0000   1.0000   1.0000
        1.0000   1.0000   1.0000   1.0000   1.0000   1.0000   1.0000   1.0000
        1.0000   1.0000   1.0000   1.0000   1.0000   1.0000   1.0000   1.0000
        1.0000   1.0000   1.0000   1.0000   1.0000   1.0000   1.0000   1.0000
        1.0000   1.0000   1.0000   1.0000   1.0000   1.0000   1.0000   1.0000
        1.0000   1.0000   1.0000   1.0000   1.0000   1.0000   1.0000   1.0000
        1.0000   1.0000   1.0000   1.0000   1.0000   1.0000   1.0000   1.0000
        1.0000   1.0000   1.0000   1.0000   1.0000   1.0000   1.0000   1.0000
        1.0000   1.0000   1.0000   1.0000   1.0000   1.0000   1.0000   1.0000
        1.0000   1.0000   1.0000   1.0000   1.0000   1.0000   1.0000   1.0000
        1.0000   1.0000   1.0000   1.0000   1.0000   1.0000   1.0000   1.0000
        1.0000   1.0000   1.0000   1.0000   1.0000   1.0000   1.0000   1.0000
        1.0000   1.0000   1.0000   1.0000   1.0000   1.0000   1.0000   1.0000
        1.0000   1.0000   1.0000   1.0000   1.0000   1.0000   1.0000   1.0000
        1.0000   1.0000   1.0000   1.0000   1.0000   0.0000   1.0000   0.0000
        0.0000   0.0000   0.0000   0.0000   0.0000   0.0000   0.0000   0.0000
        0.0000   0.0000   0.0000   0.0000   0.0000   0.0000   0.0000   0.0000
        0.0000   0.0000   0.0000   0.0000   0.0000   0.0000   0.0000   0.0000

     Estimated max dynamical RAM per process >      33.28MB

     Estimated total allocated dynamical RAM >    9585.01MB
     Generating pointlists ...
     new r_m :   0.0855 (alat units)  1.1525 (a.u.) for type    1
     new r_m :   0.0862 (alat units)  1.1623 (a.u.) for type    2

     Initial potential from superposition of free atoms

     starting charge  252.99722, renormalised to  254.00000
     Starting wfc are  252 randomized atomic wfcs

     total cpu time spent up to now is        4.3 secs

     per-process dynamical memory:    66.3 Mb

     Self-consistent Calculation

     iteration #  1     ecut=   100.00 Ry     beta=0.50
     Davidson diagonalization with overlap
     ethr =  1.00E-02,  avg # of iterations =  3.0

     total cpu time spent up to now is        5.4 secs

     total energy              =    -723.93828265 Ry
     Harris-Foulkes estimate   =    -725.49740518 Ry
     estimated scf accuracy    <       4.52751398 Ry

     total magnetization       =     2.00 Bohr mag/cell
     absolute magnetization    =     3.03 Bohr mag/cell

     iteration #  2     ecut=   100.00 Ry     beta=0.50
     Davidson diagonalization with overlap
     ethr =  1.78E-03,  avg # of iterations =  5.2

     total cpu time spent up to now is        6.7 secs

     total energy              =    -724.24904439 Ry
     Harris-Foulkes estimate   =    -724.79847920 Ry
     estimated scf accuracy    <       1.73773811 Ry

     total magnetization       =     2.00 Bohr mag/cell
     absolute magnetization    =     2.67 Bohr mag/cell

     iteration #  3     ecut=   100.00 Ry     beta=0.50
     Davidson diagonalization with overlap
     ethr =  6.84E-04,  avg # of iterations =  6.9

     total cpu time spent up to now is        8.1 secs

     total energy              =    -724.59694637 Ry
     Harris-Foulkes estimate   =    -724.69102920 Ry
     estimated scf accuracy    <       0.44205401 Ry

     total magnetization       =     2.00 Bohr mag/cell
     absolute magnetization    =     2.48 Bohr mag/cell

     iteration #  4     ecut=   100.00 Ry     beta=0.50
     Davidson diagonalization with overlap
     ethr =  1.74E-04,  avg # of iterations =  6.0

     total cpu time spent up to now is        9.4 secs

     total energy              =    -724.68472711 Ry
     Harris-Foulkes estimate   =    -724.68330084 Ry
     estimated scf accuracy    <       0.04092215 Ry

     total magnetization       =     2.00 Bohr mag/cell
     absolute magnetization    =     2.38 Bohr mag/cell

     iteration #  5     ecut=   100.00 Ry     beta=0.50
     Davidson diagonalization with overlap
     ethr =  1.61E-05,  avg # of iterations =  7.2

     total cpu time spent up to now is       11.4 secs

     total energy              =    -724.70260421 Ry
     Harris-Foulkes estimate   =    -724.69339547 Ry
     estimated scf accuracy    <       0.00825070 Ry

     total magnetization       =     2.00 Bohr mag/cell
     absolute magnetization    =     2.33 Bohr mag/cell

     iteration #  6     ecut=   100.00 Ry     beta=0.50
     Davidson diagonalization with overlap
     ethr =  3.25E-06,  avg # of iterations =  6.0

     total cpu time spent up to now is       12.7 secs

     total energy              =    -724.70660239 Ry
     Harris-Foulkes estimate   =    -724.70551655 Ry
     estimated scf accuracy    <       0.00132522 Ry

     total magnetization       =     2.00 Bohr mag/cell
     absolute magnetization    =     2.25 Bohr mag/cell

     iteration #  7     ecut=   100.00 Ry     beta=0.50
     Davidson diagonalization with overlap
     ethr =  5.22E-07,  avg # of iterations =  4.8

     total cpu time spent up to now is       14.1 secs

     total energy              =    -724.70731301 Ry
     Harris-Foulkes estimate   =    -724.70707656 Ry
     estimated scf accuracy    <       0.00025895 Ry

     total magnetization       =     2.00 Bohr mag/cell
     absolute magnetization    =     2.23 Bohr mag/cell

     iteration #  8     ecut=   100.00 Ry     beta=0.50
     Davidson diagonalization with overlap
     ethr =  1.02E-07,  avg # of iterations =  4.0

     total cpu time spent up to now is       15.2 secs

     total energy              =    -724.70747415 Ry
     Harris-Foulkes estimate   =    -724.70742876 Ry
     estimated scf accuracy    <       0.00010858 Ry

     total magnetization       =     2.00 Bohr mag/cell
     absolute magnetization    =     2.22 Bohr mag/cell

     iteration #  9     ecut=   100.00 Ry     beta=0.50
     Davidson diagonalization with overlap
     ethr =  4.27E-08,  avg # of iterations =  3.9

     total cpu time spent up to now is       16.2 secs

     total energy              =    -724.70752647 Ry
     Harris-Foulkes estimate   =    -724.70750931 Ry
     estimated scf accuracy    <       0.00001356 Ry

     total magnetization       =     2.00 Bohr mag/cell
     absolute magnetization    =     2.21 Bohr mag/cell

     iteration # 10     ecut=   100.00 Ry     beta=0.50
     Davidson diagonalization with overlap
     ethr =  5.34E-09,  avg # of iterations =  4.0

     total cpu time spent up to now is       17.4 secs

     total energy              =    -724.70753935 Ry
     Harris-Foulkes estimate   =    -724.70753777 Ry
     estimated scf accuracy    <       0.00000104 Ry

     total magnetization       =     2.00 Bohr mag/cell
     absolute magnetization    =     2.21 Bohr mag/cell

     iteration # 11     ecut=   100.00 Ry     beta=0.50
     Davidson diagonalization with overlap
     ethr =  4.08E-10,  avg # of iterations =  3.4

     total cpu time spent up to now is       18.6 secs

     total energy              =    -724.70754029 Ry
     Harris-Foulkes estimate   =    -724.70753990 Ry
     estimated scf accuracy    <       0.00000024 Ry

     total magnetization       =     2.00 Bohr mag/cell
     absolute magnetization    =     2.21 Bohr mag/cell

     iteration # 12     ecut=   100.00 Ry     beta=0.50
     Davidson diagonalization with overlap
     ethr =  9.38E-11,  avg # of iterations =  3.0

     total cpu time spent up to now is       19.7 secs

     total energy              =    -724.70754051 Ry
     Harris-Foulkes estimate   =    -724.70754041 Ry
     estimated scf accuracy    <       0.00000005 Ry

     total magnetization       =     2.00 Bohr mag/cell
     absolute magnetization    =     2.21 Bohr mag/cell

     iteration # 13     ecut=   100.00 Ry     beta=0.50
     Davidson diagonalization with overlap
     ethr =  1.97E-11,  avg # of iterations =  3.0

     total cpu time spent up to now is       20.9 secs

     total energy              =    -724.70754056 Ry
     Harris-Foulkes estimate   =    -724.70754055 Ry
     estimated scf accuracy    <          9.1E-09 Ry

     total magnetization       =     2.00 Bohr mag/cell
     absolute magnetization    =     2.21 Bohr mag/cell

     iteration # 14     ecut=   100.00 Ry     beta=0.50
     Davidson diagonalization with overlap
     ethr =  3.58E-12,  avg # of iterations =  3.8

     total cpu time spent up to now is       22.1 secs

     total energy              =    -724.70754057 Ry
     Harris-Foulkes estimate   =    -724.70754057 Ry
     estimated scf accuracy    <          2.2E-09 Ry

     total magnetization       =     2.00 Bohr mag/cell
     absolute magnetization    =     2.21 Bohr mag/cell

     iteration # 15     ecut=   100.00 Ry     beta=0.50
     Davidson diagonalization with overlap
     ethr =  8.68E-13,  avg # of iterations =  3.1
 
     Magnetic moment per site:
     atom:    1    charge:    1.8202    magn:   -0.0000    constr:    0.0000
     atom:    2    charge:    1.8268    magn:   -0.0007    constr:    0.0000
     atom:    3    charge:    1.8303    magn:   -0.0014    constr:    0.0000
     atom:    4    charge:    1.8254    magn:   -0.0017    constr:    0.0000
     atom:    5    charge:    1.8268    magn:   -0.0007    constr:    0.0000
     atom:    6    charge:    1.7998    magn:    0.0005    constr:    0.0000
     atom:    7    charge:    1.8371    magn:   -0.0032    constr:    0.0000
     atom:    8    charge:    1.8216    magn:   -0.0014    constr:    0.0000
     atom:    9    charge:    1.8303    magn:   -0.0014    constr:    0.0000
     atom:   10    charge:    1.8371    magn:   -0.0032    constr:    0.0000
     atom:   11    charge:    1.8303    magn:   -0.0014    constr:    0.0000
     atom:   12    charge:    1.8371    magn:   -0.0032    constr:    0.0000
     atom:   13    charge:    1.8254    magn:   -0.0017    constr:    0.0000
     atom:   14    charge:    1.8216    magn:   -0.0014    constr:    0.0000
     atom:   15    charge:    1.8371    magn:   -0.0032    constr:    0.0000
     atom:   16    charge:    1.8310    magn:   -0.0008    constr:    0.0000
     atom:   17    charge:    1.8268    magn:   -0.0007    constr:    0.0000
     atom:   18    charge:    1.7998    magn:    0.0005    constr:    0.0000
     atom:   19    charge:    1.8371    magn:   -0.0032    constr:    0.0000
     atom:   20    charge:    1.8216    magn:   -0.0014    constr:    0.0000
     atom:   21    charge:    1.7998    magn:    0.0005    constr:    0.0000
     atom:   22    charge:    1.8310    magn:   -0.0008    constr:    0.0000
     atom:   23    charge:    1.8433    magn:    0.0085    constr:    0.0000
     atom:   24    charge:    1.8371    magn:   -0.0032    constr:    0.0000
     atom:   25    charge:    1.8310    magn:   -0.0008    constr:    0.0000
     atom:   26    charge:    1.8254    magn:   -0.0017    constr:    0.0000
     atom:   27    charge:    1.8216    magn:   -0.0014    constr:    0.0000
     atom:   28    charge:    1.8216    magn:   -0.0014    constr:    0.0000
     atom:   29    charge:    1.8433    magn:    0.0085    constr:    0.0000
     atom:   30    charge:    1.8216    magn:   -0.0014    constr:    0.0000
     atom:   31    charge:    1.8433    magn:    0.0085    constr:    0.0000
     atom:   32    charge:    1.8288    magn:    0.0036    constr:    0.0000
     atom:   33    charge:    1.8312    magn:    0.0083    constr:    0.0000
     atom:   34    charge:    1.8225    magn:    0.0049    constr:    0.0000
     atom:   35    charge:    1.8284    magn:    0.0180    constr:    0.0000
     atom:   36    charge:    1.8239    magn:    0.0070    constr:    0.0000
     atom:   37    charge:    1.8225    magn:    0.0049    constr:    0.0000
     atom:   38    charge:    1.8239    magn:    0.0070    constr:    0.0000
     atom:   39    charge:    1.8225    magn:    0.0049    constr:    0.0000
     atom:   40    charge:    1.8252    magn:    0.0063    constr:    0.0000
     atom:   41    charge:    1.8284    magn:    0.0180    constr:    0.0000
     atom:   42    charge:    1.8225    magn:    0.0049    constr:    0.0000
     atom:   43    charge:    1.8602    magn:    0.2034    constr:    0.0000
     atom:   44    charge:    1.8296    magn:    0.0046    constr:    0.0000
     atom:   45    charge:    1.8288    magn:    0.0036    constr:    0.0000
     atom:   46    charge:    1.8239    magn:    0.0070    constr:    0.0000
     atom:   47    charge:    1.8252    magn:    0.0063    constr:    0.0000
     atom:   48    charge:    1.8312    magn:    0.0083    constr:    0.0000
     atom:   49    charge:    1.8602    magn:    0.2034    constr:    0.0000
     atom:   50    charge:    1.8213    magn:    0.0164    constr:    0.0000
     atom:   51    charge:    1.8225    magn:    0.0049    constr:    0.0000
     atom:   52    charge:    1.8602    magn:    0.2034    constr:    0.0000
     atom:   53    charge:    1.8252    magn:    0.0063    constr:    0.0000
     atom:   54    charge:    1.8284    magn:    0.0180    constr:    0.0000
     atom:   55    charge:    1.8284    magn:    0.0180    constr:    0.0000
     atom:   56    charge:    1.8213    magn:    0.0164    constr:    0.0000
     atom:   57    charge:    1.8284    magn:    0.0180    constr:    0.0000
     atom:   58    charge:    1.8213    magn:    0.0164    constr:    0.0000
     atom:   59    charge:    1.8288    magn:    0.0036    constr:    0.0000
     atom:   60    charge:    1.8312    magn:    0.0083    constr:    0.0000
     atom:   61    charge:    1.8225    magn:    0.0049    constr:    0.0000
     atom:   62    charge:    1.8284    magn:    0.0180    constr:    0.0000
     atom:   63    charge:    2.9196    magn:    0.1178    constr:    0.0000

     total cpu time spent up to now is       23.3 secs

     End of self-consistent calculation

 ------ SPIN UP ------------


          k = 0.0000 0.0000 0.0000 ( 41395 PWs)   bands (ev):

    -8.6149  -7.1276  -6.2994  -6.2994  -6.1739  -6.1739  -5.9081  -5.0103
    -4.1567  -4.1567  -4.1367  -4.1367  -4.0404  -4.0404  -4.0234  -3.9709
    -3.8722  -3.8722  -3.3842  -2.9814  -2.6869  -2.6869  -2.1418  -0.4068
    -0.4068  -0.3645  -0.3296  -0.1874   0.1392   0.1392   0.2527   0.2527
     0.3402   0.5714   0.7909   0.7909   0.9519   0.9555   0.9555   1.0137
     1.0137   1.0401   1.3120   1.3121   3.0147   3.8139   3.8139   4.0031
     4.1757   4.1757   4.1861   4.2081   4.2279   4.2279   4.3883   4.3883
     4.4402   4.4402   4.5470   4.6176   4.6238   4.6238   4.6357   4.7187
     4.7187   4.8581   4.9179   4.9179   4.9851   5.1612   5.1612   5.2373
     5.3137   5.3137   5.3544   5.3889   5.3889   5.9849   5.9849   6.0269
     6.5841   6.5841   6.6792   6.9019   6.9661   6.9661   7.4588   8.2514
     8.2514   8.3532   8.4228   8.4228   8.5995   8.5995   8.7477   8.7585
     8.7680   8.7680   8.8355   8.8355   8.8534   9.2244   9.2292   9.2293
     9.6207   9.6207   9.8525   9.8599   9.8612   9.8612   9.8674   9.9122
     9.9122   9.9503   9.9504   9.9504  10.0513  10.0513  10.2597  10.2756
    10.2756  10.5804  12.1733  12.3742  12.3742  13.6077  14.8922  14.8922
    17.2109  17.3082  17.3082  17.4463  17.5167  17.5167  17.7902  17.8771
    17.8771  17.9831  17.9831  18.3015  18.8620  18.8620  18.9236  20.5067
    20.7297  20.7298  20.8003  20.8517  20.8517  20.9485  20.9490  20.9533

     occupation numbers 
     1.0000   1.0000   1.0000   1.0000   1.0000   1.0000   1.0000   1.0000
     1.0000   1.0000   1.0000   1.0000   1.0000   1.0000   1.0000   1.0000
     1.0000   1.0000   1.0000   1.0000   1.0000   1.0000   1.0000   1.0000
     1.0000   1.0000   1.0000   1.0000   1.0000   1.0000   1.0000   1.0000
     1.0000   1.0000   1.0000   1.0000   1.0000   1.0000   1.0000   1.0000
     1.0000   1.0000   1.0000   1.0000   1.0000   1.0000   1.0000   1.0000
     1.0000   1.0000   1.0000   1.0000   1.0000   1.0000   1.0000   1.0000
     1.0000   1.0000   1.0000   1.0000   1.0000   1.0000   1.0000   1.0000
     1.0000   1.0000   1.0000   1.0000   1.0000   1.0000   1.0000   1.0000
     1.0000   1.0000   1.0000   1.0000   1.0000   1.0000   1.0000   1.0000
     1.0000   1.0000   1.0000   1.0000   1.0000   1.0000   1.0000   1.0000
     1.0000   1.0000   1.0000   1.0000   1.0000   1.0000   1.0000   1.0000
     1.0000   1.0000   1.0000   1.0000   1.0000   1.0000   1.0000   1.0000
     1.0000   1.0000   1.0000   1.0000   1.0000   1.0000   1.0000   1.0000
     1.0000   1.0000   1.0000   1.0000   1.0000   1.0000   1.0000   1.0000
     1.0000   1.0000   1.0000   1.0000   1.0000   1.0000   1.0000   1.0000
     0.0000   0.0000   0.0000   0.0000   0.0000   0.0000   0.0000   0.0000
     0.0000   0.0000   0.0000   0.0000   0.0000   0.0000   0.0000   0.0000
     0.0000   0.0000   0.0000   0.0000   0.0000   0.0000   0.0000   0.0000

          k = 0.0000 0.0000-0.5000 ( 41426 PWs)   bands (ev):

    -8.2390  -7.8683  -6.6663  -5.8074  -5.7022  -5.6979  -5.6803  -5.6558
    -5.5272  -5.2053  -4.2847  -3.6834  -3.6786  -3.6276  -3.6019  -3.5233
    -3.4611  -3.3815  -3.3595  -2.8100  -1.9940  -1.6498  -1.6351  -1.6061
    -1.5285  -1.4659  -1.3817  -0.7980   0.2392   0.3346   0.4213   0.4316
     0.5292   0.6211   0.7327   0.9973   1.2105   1.3143   1.3205   1.3643
     1.5280   1.6318   1.6515   1.9600   2.3701   2.3979   2.4395   2.5259
     2.5633   2.7705   2.7925   3.7826   3.8659   3.9729   4.0423   4.0642
     4.0977   4.1738   4.4065   4.4158   4.4997   5.3180   5.4437   5.5021
     5.5170   5.5921   5.6937   5.7660   5.7897   5.8345   6.2407   6.2626
     6.3919   6.4158   6.4393   6.5843   6.6966   6.9162   7.0185   7.0888
     7.1659   7.2020   7.2904   7.3173   7.3694   7.3857   7.3913   7.4104
     7.4198   7.4443   7.4818   7.5265   7.5479   7.5586   7.8554   7.9815
     8.0382   8.0450   8.1777   8.2603   8.3324   8.3784   8.7477   8.9610
     9.3562   9.6421   9.6824   9.8580   9.8859   9.9228   9.9325   9.9429
     9.9912  10.0101  10.0175  10.0201  10.0766  10.3210  10.6364  10.8988
    10.8998  11.0855  11.1300  11.1740  11.7799  13.2435  14.4660  14.7057
    17.1262  17.2368  18.0331  18.5209  19.0417  19.2871  19.4358  19.4607
    19.4766  19.5225  19.6042  19.6481  19.7135  19.7208  19.8193  19.8831
    19.9049  19.9649  19.9997  20.1354  20.1806  20.2530  20.6092  20.7134

     occupation numbers 
     1.0000   1.0000   1.0000   1.0000   1.0000   1.0000   1.0000   1.0000
     1.0000   1.0000   1.0000   1.0000   1.0000   1.0000   1.0000   1.0000
     1.0000   1.0000   1.0000   1.0000   1.0000   1.0000   1.0000   1.0000
     1.0000   1.0000   1.0000   1.0000   1.0000   1.0000   1.0000   1.0000
     1.0000   1.0000   1.0000   1.0000   1.0000   1.0000   1.0000   1.0000
     1.0000   1.0000   1.0000   1.0000   1.0000   1.0000   1.0000   1.0000
     1.0000   1.0000   1.0000   1.0000   1.0000   1.0000   1.0000   1.0000
     1.0000   1.0000   1.0000   1.0000   1.0000   1.0000   1.0000   1.0000
     1.0000   1.0000   1.0000   1.0000   1.0000   1.0000   1.0000   1.0000
     1.0000   1.0000   1.0000   1.0000   1.0000   1.0000   1.0000   1.0000
     1.0000   1.0000   1.0000   1.0000   1.0000   1.0000   1.0000   1.0000
     1.0000   1.0000   1.0000   1.0000   1.0000   1.0000   1.0000   1.0000
     1.0000   1.0000   1.0000   1.0000   1.0000   1.0000   1.0000   1.0000
     1.0000   1.0000   1.0000   1.0000   1.0000   1.0000   1.0000   1.0000
     1.0000   1.0000   1.0000   1.0000   1.0000   1.0000   1.0000   1.0000
     1.0000   1.0000   1.0000   1.0000   1.0000   1.0000   1.0000   1.0000
     0.0000   0.0000   0.0000   0.0000   0.0000   0.0000   0.0000   0.0000
     0.0000   0.0000   0.0000   0.0000   0.0000   0.0000   0.0000   0.0000
     0.0000   0.0000   0.0000   0.0000   0.0000   0.0000   0.0000   0.0000

          k = 0.0000-0.5000-0.5000 ( 41364 PWs)   bands (ev):

    -7.9616  -7.4258  -7.3680  -7.1213  -5.9734  -5.2552  -5.1978  -5.1549
    -5.1450  -5.1150  -4.9828  -4.5538  -3.5457  -3.0954  -3.0396  -2.9979
    -2.9593  -2.9468  -2.7607  -2.5178  -2.1506  -1.8456  -1.8281  -1.7441
    -1.7117  -1.6694  -1.5554  -0.9233  -0.2357  -0.0773  -0.0139   0.1697
     0.4389   0.4829   0.5625   0.5868   0.7096   0.7792   0.8866   0.9545
     1.1103   1.2496   1.4363   2.4526   3.3967   3.4335   3.4581   3.6245
     3.6361   3.6658   3.7535   3.7837   3.8241   3.8310   3.8545   3.8850
     3.8947   3.9263   3.9295   3.9566   4.1640   4.4544   4.5419   5.4876
     5.7161   5.7633   5.8752   5.9218   5.9647   6.0913   6.1940   6.3123
     6.3522   6.5008   6.5585   6.5705   6.6268   6.6908   6.7114   6.8427
     6.9343   6.9898   7.0258   7.0895   7.2487   7.2889   7.3164   7.4560
     7.5774   7.7229   7.7820   8.0003   8.1525   8.2221   8.2232   8.3675
     8.4116   8.4171   8.5553   8.5749   8.9133   8.9588   9.0159   9.2139
     9.2224   9.3030   9.3604   9.3833   9.3876   9.4803   9.4845   9.5586
     9.6377   9.6598   9.6819   9.6854   9.7029   9.7031   9.7426   9.7842
    10.9422  11.4296  11.6279  12.0582  12.1571  13.2386  14.4610  14.7787
    18.3298  18.6171  18.7054  18.8964  18.9800  19.1669  19.1741  19.2521
    19.2935  19.3947  19.3971  19.5326  19.5926  19.6487  19.7119  19.8051
    19.8611  19.8643  19.9293  19.9618  20.1483  20.1626  20.3754  20.4882

     occupation numbers 
     1.0000   1.0000   1.0000   1.0000   1.0000   1.0000   1.0000   1.0000
     1.0000   1.0000   1.0000   1.0000   1.0000   1.0000   1.0000   1.0000
     1.0000   1.0000   1.0000   1.0000   1.0000   1.0000   1.0000   1.0000
     1.0000   1.0000   1.0000   1.0000   1.0000   1.0000   1.0000   1.0000
     1.0000   1.0000   1.0000   1.0000   1.0000   1.0000   1.0000   1.0000
     1.0000   1.0000   1.0000   1.0000   1.0000   1.0000   1.0000   1.0000
     1.0000   1.0000   1.0000   1.0000   1.0000   1.0000   1.0000   1.0000
     1.0000   1.0000   1.0000   1.0000   1.0000   1.0000   1.0000   1.0000
     1.0000   1.0000   1.0000   1.0000   1.0000   1.0000   1.0000   1.0000
     1.0000   1.0000   1.0000   1.0000   1.0000   1.0000   1.0000   1.0000
     1.0000   1.0000   1.0000   1.0000   1.0000   1.0000   1.0000   1.0000
     1.0000   1.0000   1.0000   1.0000   1.0000   1.0000   1.0000   1.0000
     1.0000   1.0000   1.0000   1.0000   1.0000   1.0000   1.0000   1.0000
     1.0000   1.0000   1.0000   1.0000   1.0000   1.0000   1.0000   1.0000
     1.0000   1.0000   1.0000   1.0000   1.0000   1.0000   1.0000   1.0000
     1.0000   1.0000   1.0000   1.0000   1.0000   1.0000   1.0000   1.0000
     0.0000   0.0000   0.0000   0.0000   0.0000   0.0000   0.0000   0.0000
     0.0000   0.0000   0.0000   0.0000   0.0000   0.0000   0.0000   0.0000
     0.0000   0.0000   0.0000   0.0000   0.0000   0.0000   0.0000   0.0000

          k =-0.5000-0.5000-0.5000 ( 41328 PWs)   bands (ev):

    -7.7785  -6.9020  -6.8686  -6.8686  -6.7890  -6.7320  -6.7320  -6.1889
    -4.1623  -2.7972  -2.7972  -2.6232  -2.6232  -2.6199  -2.6103  -2.6103
    -2.6055  -2.5573  -2.5573  -2.5377  -2.5124  -2.4963  -2.4963  -2.4272
    -2.4153  -2.4153  -2.3715  -2.3715  -2.3244  -2.0147  -2.0147  -0.1309
     1.6189   1.7633   1.7633   2.0168   2.0563   2.0563   2.0779   2.0826
     2.1046   2.1046   2.1380   2.1457   2.1457   2.1530   2.1530   2.1974
     2.1974   2.2106   2.2659   2.2659   2.6419   2.9403   2.9403   4.6293
     5.5653   5.5653   5.7843   6.0579   6.0717   6.0717   6.0784   6.1213
     6.1213   6.1271   6.1496   6.1496   6.1689   6.1689   6.1841   6.2018
     6.2018   6.2153   6.2191   6.2442   6.2442   6.2604   6.3019   6.3510
     6.3510   6.4509   6.5125   6.5125   6.9543   6.9661   6.9661   7.5990
     7.5990   7.8934   7.9055   7.9056   7.9518   7.9518   7.9756   7.9907
     8.0017   8.0017   8.0035   8.0320   8.0581   8.0581   8.1004   8.1004
     8.1567   8.2707   8.2707   8.3437   9.3879   9.7760   9.7760  10.6256
    10.8637  10.8637  11.0890  11.0890  11.1382  11.1382  11.1465  11.1538
    11.1538  11.1775  11.1936  11.2326  11.2326  13.3172  14.7982  14.7982
    18.1356  18.7964  18.7964  18.9254  18.9254  18.9371  18.9371  18.9402
    18.9666  18.9666  18.9704  18.9824  19.0365  19.0435  19.0435  19.1541
    19.1819  19.1819  19.4602  19.5402  19.5402  19.6599  19.6599  19.9149

     occupation numbers 
     1.0000   1.0000   1.0000   1.0000   1.0000   1.0000   1.0000   1.0000
     1.0000   1.0000   1.0000   1.0000   1.0000   1.0000   1.0000   1.0000
     1.0000   1.0000   1.0000   1.0000   1.0000   1.0000   1.0000   1.0000
     1.0000   1.0000   1.0000   1.0000   1.0000   1.0000   1.0000   1.0000
     1.0000   1.0000   1.0000   1.0000   1.0000   1.0000   1.0000   1.0000
     1.0000   1.0000   1.0000   1.0000   1.0000   1.0000   1.0000   1.0000
     1.0000   1.0000   1.0000   1.0000   1.0000   1.0000   1.0000   1.0000
     1.0000   1.0000   1.0000   1.0000   1.0000   1.0000   1.0000   1.0000
     1.0000   1.0000   1.0000   1.0000   1.0000   1.0000   1.0000   1.0000
     1.0000   1.0000   1.0000   1.0000   1.0000   1.0000   1.0000   1.0000
     1.0000   1.0000   1.0000   1.0000   1.0000   1.0000   1.0000   1.0000
     1.0000   1.0000   1.0000   1.0000   1.0000   1.0000   1.0000   1.0000
     1.0000   1.0000   1.0000   1.0000   1.0000   1.0000   1.0000   1.0000
     1.0000   1.0000   1.0000   1.0000   1.0000   1.0000   1.0000   1.0000
     1.0000   1.0000   1.0000   1.0000   1.0000   1.0000   1.0000   1.0000
     1.0000   1.0000   1.0000   1.0000   1.0000   1.0000   1.0000   1.0000
     0.0000   0.0000   0.0000   0.0000   0.0000   0.0000   0.0000   0.0000
     0.0000   0.0000   0.0000   0.0000   0.0000   0.0000   0.0000   0.0000
     0.0000   0.0000   0.0000   0.0000   0.0000   0.0000   0.0000   0.0000

 ------ SPIN DOWN ----------


          k = 0.0000 0.0000 0.0000 ( 41395 PWs)   bands (ev):

    -8.5786  -7.0566  -6.2804  -6.2803  -6.1378  -6.1378  -5.8710  -4.9659
    -4.1372  -4.1372  -4.1183  -4.1183  -4.0024  -3.9895  -3.9895  -3.9552
    -3.8344  -3.8344  -3.3418  -2.9539  -2.6394  -2.6394  -2.0165  -0.3888
    -0.3888  -0.3440  -0.3028  -0.1109   0.1576   0.1576   0.2857   0.2857
     0.3613   0.6095   0.8054   0.8054   0.9805   0.9805   0.9822   1.0300
     1.0300   1.0519   1.4553   1.4553   3.1265   3.8482   3.8482   4.0366
     4.2060   4.2117   4.2117   4.2432   4.2432   4.2470   4.4209   4.4209
     4.4705   4.4705   4.5655   4.6420   4.6421   4.6464   4.6475   4.7550
     4.7550   4.8772   4.9455   4.9455   5.0729   5.1953   5.1953   5.2690
     5.3250   5.3251   5.3639   5.4392   5.4392   6.0383   6.0383   6.0750
     6.6126   6.6126   6.7058   6.9757   7.0459   7.0459   7.6284   8.2904
     8.2904   8.3940   8.4541   8.4541   8.6332   8.6332   8.7699   8.7866
     8.7866   8.8245   8.8710   8.8756   8.8756   9.2594   9.2606   9.2606
     9.6511   9.6511   9.8639   9.8736   9.8800   9.8800   9.8959   9.9317
     9.9317   9.9672   9.9758   9.9758  10.0834  10.0834  10.3068  10.3260
    10.3260  11.0543  12.4892  12.4892  12.4986  14.3101  15.9916  15.9916
    17.2531  17.3268  17.3268  17.4699  17.5655  17.5655  17.8253  17.8985
    17.8985  18.0192  18.0192  18.4197  18.9384  18.9384  18.9724  20.5745
    20.7453  20.7453  20.8126  20.8759  20.8761  20.9704  20.9712  20.9719

     occupation numbers 
     1.0000   1.0000   1.0000   1.0000   1.0000   1.0000   1.0000   1.0000
     1.0000   1.0000   1.0000   1.0000   1.0000   1.0000   1.0000   1.0000
     1.0000   1.0000   1.0000   1.0000   1.0000   1.0000   1.0000   1.0000
     1.0000   1.0000   1.0000   1.0000   1.0000   1.0000   1.0000   1.0000
     1.0000   1.0000   1.0000   1.0000   1.0000   1.0000   1.0000   1.0000
     1.0000   1.0000   1.0000   1.0000   1.0000   1.0000   1.0000   1.0000
     1.0000   1.0000   1.0000   1.0000   1.0000   1.0000   1.0000   1.0000
     1.0000   1.0000   1.0000   1.0000   1.0000   1.0000   1.0000   1.0000
     1.0000   1.0000   1.0000   1.0000   1.0000   1.0000   1.0000   1.0000
     1.0000   1.0000   1.0000   1.0000   1.0000   1.0000   1.0000   1.0000
     1.0000   1.0000   1.0000   1.0000   1.0000   1.0000   1.0000   1.0000
     1.0000   1.0000   1.0000   1.0000   1.0000   1.0000   1.0000   1.0000
     1.0000   1.0000   1.0000   1.0000   1.0000   1.0000   1.0000   1.0000
     1.0000   1.0000   1.0000   1.0000   1.0000   1.0000   1.0000   1.0000
     1.0000   1.0000   1.0000   1.0000   1.0000   1.0000   1.0000   1.0000
     1.0000   1.0000   1.0000   1.0000   1.0000   0.0000   1.0000   0.0000
     0.0000   0.0000   0.0000   0.0000   0.0000   0.0000   0.0000   0.0000
     0.0000   0.0000   0.0000   0.0000   0.0000   0.0000   0.0000   0.0000
     0.0000   0.0000   0.0000   0.0000   0.0000   0.0000   0.0000   0.0000

          k = 0.0000 0.0000-0.5000 ( 41426 PWs)   bands (ev):

    -8.1968  -7.8351  -6.5943  -5.7893  -5.6788  -5.6780  -5.6632  -5.6416
    -5.4708  -5.1485  -4.2308  -3.6633  -3.6613  -3.6088  -3.5634  -3.5030
    -3.4273  -3.3469  -3.3064  -2.7435  -1.9558  -1.6279  -1.6151  -1.5851
    -1.4950  -1.4223  -1.3081  -0.7081   0.2992   0.3506   0.4400   0.4406
     0.5524   0.6407   0.8070   1.0365   1.2474   1.3362   1.3475   1.3984
     1.5595   1.6688   1.6988   2.0033   2.4054   2.4213   2.4757   2.5457
     2.5822   2.8594   2.8857   3.8317   3.8884   3.9924   4.0576   4.0831
     4.1452   4.2086   4.4507   4.4694   4.5560   5.3893   5.4723   5.5327
     5.5390   5.6121   5.7502   5.7935   5.8390   5.8754   6.2745   6.3010
     6.4069   6.4657   6.4674   6.6380   6.7568   6.9417   7.0456   7.1352
     7.2103   7.2223   7.3179   7.3383   7.3936   7.3990   7.4118   7.4376
     7.4457   7.4586   7.4967   7.5668   7.5946   7.6035   7.8901   8.0285
     8.0858   8.1099   8.2138   8.2926   8.3722   8.4179   8.8238   9.0460
     9.4169   9.6716   9.7766   9.8970   9.9180   9.9464   9.9487   9.9598
    10.0077  10.0414  10.0549  10.0553  10.1072  10.3772  10.7791  10.9420
    10.9874  11.1272  11.2206  11.2722  11.9768  14.1854  15.5831  15.8588
    17.1631  17.2707  18.0616  18.5593  19.0843  19.3081  19.4523  19.4794
    19.4923  19.5677  19.6281  19.6698  19.7304  19.7517  19.8597  19.9072
    19.9558  20.0042  20.0769  20.1534  20.2187  20.3204  20.6557  20.7418

     occupation numbers 
     1.0000   1.0000   1.0000   1.0000   1.0000   1.0000   1.0000   1.0000
     1.0000   1.0000   1.0000   1.0000   1.0000   1.0000   1.0000   1.0000
     1.0000   1.0000   1.0000   1.0000   1.0000   1.0000   1.0000   1.0000
     1.0000   1.0000   1.0000   1.0000   1.0000   1.0000   1.0000   1.0000
     1.0000   1.0000   1.0000   1.0000   1.0000   1.0000   1.0000   1.0000
     1.0000   1.0000   1.0000   1.0000   1.0000   1.0000   1.0000   1.0000
     1.0000   1.0000   1.0000   1.0000   1.0000   1.0000   1.0000   1.0000
     1.0000   1.0000   1.0000   1.0000   1.0000   1.0000   1.0000   1.0000
     1.0000   1.0000   1.0000   1.0000   1.0000   1.0000   1.0000   1.0000
     1.0000   1.0000   1.0000   1.0000   1.0000   1.0000   1.0000   1.0000
     1.0000   1.0000   1.0000   1.0000   1.0000   1.0000   1.0000   1.0000
     1.0000   1.0000   1.0000   1.0000   1.0000   1.0000   1.0000   1.0000
     1.0000   1.0000   1.0000   1.0000   1.0000   1.0000   1.0000   1.0000
     1.0000   1.0000   1.0000   1.0000   1.0000   1.0000   1.0000   1.0000
     1.0000   1.0000   1.0000   1.0000   1.0000   1.0000   1.0000   1.0000
     1.0000   1.0000   1.0000   1.0000   1.0000   0.0000   1.0000   0.0000
     0.0000   0.0000   0.0000   0.0000   0.0000   0.0000   0.0000   0.0000
     0.0000   0.0000   0.0000   0.0000   0.0000   0.0000   0.0000   0.0000
     0.0000   0.0000   0.0000   0.0000   0.0000   0.0000   0.0000   0.0000

          k = 0.0000-0.5000-0.5000 ( 41364 PWs)   bands (ev):

    -7.9056  -7.4070  -7.3400  -7.0758  -5.9152  -5.2407  -5.1813  -5.1237
    -5.1159  -5.0959  -4.9258  -4.4922  -3.4898  -3.0769  -3.0202  -2.9864
    -2.9144  -2.9104  -2.7146  -2.4932  -2.1257  -1.8252  -1.8074  -1.7316
    -1.6779  -1.6314  -1.4590  -0.8285  -0.1899  -0.0460   0.0139   0.2250
     0.4575   0.5119   0.5889   0.6122   0.7341   0.8116   0.9191   0.9869
     1.1341   1.2939   1.5229   2.5632   3.4358   3.4648   3.4862   3.6501
     3.6691   3.6817   3.7766   3.8379   3.8487   3.8490   3.8781   3.9041
     3.9196   3.9441   3.9731   3.9787   4.2116   4.5492   4.6450   5.5469
     5.7633   5.7964   5.8863   5.9455   5.9918   6.1172   6.2479   6.3859
     6.3867   6.5250   6.5849   6.5936   6.6701   6.7056   6.7274   6.8666
     6.9657   7.0141   7.0541   7.1125   7.2887   7.3252   7.3612   7.4730
     7.6055   7.7801   7.8342   8.0386   8.1694   8.2415   8.2479   8.4347
     8.4588   8.4984   8.6133   8.6321   8.9485   9.0104   9.0537   9.2430
     9.2924   9.3192   9.3902   9.4020   9.4207   9.5094   9.5197   9.5815
     9.6741   9.6892   9.7081   9.7176   9.7486   9.7607   9.7827   9.8337
    11.1685  11.5396  11.9360  12.0806  12.1828  14.1961  15.5782  15.8865
    18.3649  18.6417  18.7303  18.9202  19.0174  19.2011  19.2039  19.2765
    19.3197  19.4139  19.4368  19.5758  19.6165  19.6758  19.7352  19.8275
    19.8797  19.8853  19.9542  19.9849  20.1862  20.2149  20.4195  20.5184

     occupation numbers 
     1.0000   1.0000   1.0000   1.0000   1.0000   1.0000   1.0000   1.0000
     1.0000   1.0000   1.0000   1.0000   1.0000   1.0000   1.0000   1.0000
     1.0000   1.0000   1.0000   1.0000   1.0000   1.0000   1.0000   1.0000
     1.0000   1.0000   1.0000   1.0000   1.0000   1.0000   1.0000   1.0000
     1.0000   1.0000   1.0000   1.0000   1.0000   1.0000   1.0000   1.0000
     1.0000   1.0000   1.0000   1.0000   1.0000   1.0000   1.0000   1.0000
     1.0000   1.0000   1.0000   1.0000   1.0000   1.0000   1.0000   1.0000
     1.0000   1.0000   1.0000   1.0000   1.0000   1.0000   1.0000   1.0000
     1.0000   1.0000   1.0000   1.0000   1.0000   1.0000   1.0000   1.0000
     1.0000   1.0000   1.0000   1.0000   1.0000   1.0000   1.0000   1.0000
     1.0000   1.0000   1.0000   1.0000   1.0000   1.0000   1.0000   1.0000
     1.0000   1.0000   1.0000   1.0000   1.0000   1.0000   1.0000   1.0000
     1.0000   1.0000   1.0000   1.0000   1.0000   1.0000   1.0000   1.0000
     1.0000   1.0000   1.0000   1.0000   1.0000   1.0000   1.0000   1.0000
     1.0000   1.0000   1.0000   1.0000   1.0000   1.0000   1.0000   1.0000
     1.0000   1.0000   1.0000   1.0000   1.0000   0.0000   1.0000   0.0000
     0.0000   0.0000   0.0000   0.0000   0.0000   0.0000   0.0000   0.0000
     0.0000   0.0000   0.0000   0.0000   0.0000   0.0000   0.0000   0.0000
     0.0000   0.0000   0.0000   0.0000   0.0000   0.0000   0.0000   0.0000

          k =-0.5000-0.5000-0.5000 ( 41328 PWs)   bands (ev):

    -7.7098  -6.8935  -6.8487  -6.8487  -6.7687  -6.6942  -6.6942  -6.1089
    -4.0668  -2.7770  -2.7770  -2.6010  -2.6009  -2.6006  -2.5915  -2.5870
    -2.5870  -2.5367  -2.5367  -2.5175  -2.5013  -2.4834  -2.4834  -2.3950
    -2.3930  -2.3930  -2.3432  -2.3432  -2.3072  -1.8775  -1.8775   0.0268
     1.6595   1.7880   1.7880   2.0812   2.0812   2.0815   2.0900   2.1082
     2.1238   2.1238   2.1546   2.1546   2.1678   2.1788   2.1788   2.2224
     2.2224   2.2355   2.3052   2.3052   2.6990   3.0546   3.0546   4.7892
     5.6096   5.6096   5.8113   6.0762   6.0845   6.0845   6.1032   6.1342
     6.1343   6.1454   6.1697   6.1697   6.1939   6.1939   6.2153   6.2243
     6.2434   6.2434   6.2528   6.2781   6.2781   6.2915   6.3577   6.3611
     6.3611   6.4805   6.5733   6.5733   7.0096   7.0320   7.0320   7.6263
     7.6263   7.9109   7.9326   7.9326   7.9678   7.9678   7.9933   8.0131
     8.0274   8.0278   8.0278   8.0446   8.0736   8.0736   8.1328   8.1328
     8.1660   8.3255   8.3255   8.4098   9.5538   9.9249   9.9249  10.8937
    10.8937  11.0894  11.1185  11.1185  11.1571  11.1571  11.1647  11.1869
    11.1869  11.2224  11.2584  11.2584  11.3465  14.2112  15.9547  15.9547
    18.1811  18.8099  18.8099  18.9410  18.9410  18.9485  18.9485  18.9488
    18.9851  18.9851  18.9911  19.0055  19.0451  19.0675  19.0675  19.1757
    19.2427  19.2427  19.4937  19.5772  19.5772  19.6989  19.6989  19.9914

     occupation numbers 
     1.0000   1.0000   1.0000   1.0000   1.0000   1.0000   1.0000   1.0000
     1.0000   1.0000   1.0000   1.0000   1.0000   1.0000   1.0000   1.0000
     1.0000   1.0000   1.0000   1.0000   1.0000   1.0000   1.0000   1.0000
     1.0000   1.0000   1.0000   1.0000   1.0000   1.0000   1.0000   1.0000
     1.0000   1.0000   1.0000   1.0000   1.0000   1.0000   1.0000   1.0000
     1.0000   1.0000   1.0000   1.0000   1.0000   1.0000   1.0000   1.0000
     1.0000   1.0000   1.0000   1.0000   1.0000   1.0000   1.0000   1.0000
     1.0000   1.0000   1.0000   1.0000   1.0000   1.0000   1.0000   1.0000
     1.0000   1.0000   1.0000   1.0000   1.0000   1.0000   1.0000   1.0000
     1.0000   1.0000   1.0000   1.0000   1.0000   1.0000   1.0000   1.0000
     1.0000   1.0000   1.0000   1.0000   1.0000   1.0000   1.0000   1.0000
     1.0000   1.0000   1.0000   1.0000   1.0000   1.0000   1.0000   1.0000
     1.0000   1.0000   1.0000   1.0000   1.0000   1.0000   1.0000   1.0000
     1.0000   1.0000   1.0000   1.0000   1.0000   1.0000   1.0000   1.0000
     1.0000   1.0000   1.0000   1.0000   1.0000   1.0000   1.0000   1.0000
     1.0000   1.0000   1.0000   1.0000   1.0000   0.0000   1.0000   0.0000
     0.0000   0.0000   0.0000   0.0000   0.0000   0.0000   0.0000   0.0000
     0.0000   0.0000   0.0000   0.0000   0.0000   0.0000   0.0000   0.0000
     0.0000   0.0000   0.0000   0.0000   0.0000   0.0000   0.0000   0.0000

     highest occupied, lowest unoccupied level (ev):    14.8922   14.1854

!    total energy              =    -724.70754058 Ry
     Harris-Foulkes estimate   =    -724.70754057 Ry
     estimated scf accuracy    <          4.2E-10 Ry

     The total energy is the sum of the following terms:

     one-electron contribution =     232.01409866 Ry
     hartree contribution      =      69.63046383 Ry
     xc contribution           =    -226.44667838 Ry
     ewald contribution        =    -799.90542469 Ry

     total magnetization       =     2.00 Bohr mag/cell
     absolute magnetization    =     2.21 Bohr mag/cell

     convergence has been achieved in  15 iterations

     Forces acting on atoms (cartesian axes, Ry/au):

     atom    1 type  1   force =     0.00044366   -0.00044366   -0.00044366
     atom    2 type  1   force =     0.00011143   -0.00011143    0.00061044
     atom    3 type  1   force =    -0.00003867    0.00003867    0.00017335
     atom    4 type  1   force =    -0.00002302    0.00002302    0.00075692
     atom    5 type  1   force =    -0.00061044   -0.00011143   -0.00011143
     atom    6 type  1   force =    -0.00000481    0.00040512    0.00000481
     atom    7 type  1   force =     0.00031785   -0.00014376    0.00003141
     atom    8 type  1   force =    -0.00074497   -0.00074736   -0.00000461
     atom    9 type  1   force =    -0.00017335    0.00003867    0.00003867
     atom   10 type  1   force =    -0.00003141   -0.00014376   -0.00031785
     atom   11 type  1   force =    -0.00003867    0.00017335    0.00003867
     atom   12 type  1   force =     0.00014376    0.00003141   -0.00031785
     atom   13 type  1   force =    -0.00075692    0.00002302    0.00002302
     atom   14 type  1   force =     0.00000461   -0.00074736    0.00074497
     atom   15 type  1   force =     0.00031785    0.00003141   -0.00014376
     atom   16 type  1   force =     0.00023680    0.00024225   -0.00023680
     atom   17 type  1   force =     0.00011143    0.00061044   -0.00011143
     atom   18 type  1   force =    -0.00040512    0.00000481    0.00000481
     atom   19 type  1   force =     0.00014376   -0.00031785    0.00003141
     atom   20 type  1   force =     0.00074736    0.00074497   -0.00000461
     atom   21 type  1   force =    -0.00000481    0.00000481    0.00040512
     atom   22 type  1   force =     0.00023680   -0.00023680    0.00024225
     atom   23 type  1   force =     0.00036103   -0.00036103    0.00000158
     atom   24 type  1   force =    -0.00003141   -0.00031785   -0.00014376
     atom   25 type  1   force =    -0.00024225   -0.00023680   -0.00023680
     atom   26 type  1   force =    -0.00002302    0.00075692    0.00002302
     atom   27 type  1   force =     0.00074736   -0.00000461    0.00074497
     atom   28 type  1   force =     0.00000461    0.00074497   -0.00074736
     atom   29 type  1   force =    -0.00000158   -0.00036103   -0.00036103
     atom   30 type  1   force =    -0.00074497   -0.00000461   -0.00074736
     atom   31 type  1   force =     0.00036103    0.00000158   -0.00036103
     atom   32 type  1   force =    -0.00068943   -0.00034284   -0.00034284
     atom   33 type  1   force =    -0.00037849    0.00036776    0.00037849
     atom   34 type  1   force =     0.00049670    0.00037019   -0.00001850
     atom   35 type  1   force =    -0.00017076   -0.00044858    0.00070099
     atom   36 type  1   force =    -0.00030121   -0.00013455   -0.00013455
     atom   37 type  1   force =     0.00001850    0.00037019   -0.00049670
     atom   38 type  1   force =     0.00013455    0.00030121   -0.00013455
     atom   39 type  1   force =    -0.00037019   -0.00001850   -0.00049670
     atom   40 type  1   force =    -0.00059789    0.00009981    0.00009981
     atom   41 type  1   force =    -0.00070099   -0.00044858    0.00017076
     atom   42 type  1   force =     0.00049670   -0.00001850    0.00037019
     atom   43 type  1   force =     0.00013028   -0.00023743   -0.00013028
     atom   44 type  1   force =     0.00009411   -0.00009411   -0.00009411
     atom   45 type  1   force =     0.00034284   -0.00034284    0.00068943
     atom   46 type  1   force =     0.00013455   -0.00013455    0.00030121
     atom   47 type  1   force =    -0.00009981    0.00009981    0.00059789
     atom   48 type  1   force =    -0.00037849    0.00037849    0.00036776
     atom   49 type  1   force =     0.00013028   -0.00013028   -0.00023743
     atom   50 type  1   force =     0.00074702   -0.00074702   -0.00020308
     atom   51 type  1   force =     0.00001850   -0.00049670    0.00037019
     atom   52 type  1   force =     0.00023743   -0.00013028   -0.00013028
     atom   53 type  1   force =    -0.00009981    0.00059789    0.00009981
     atom   54 type  1   force =     0.00044858    0.00070099    0.00017076
     atom   55 type  1   force =    -0.00070099    0.00017076   -0.00044858
     atom   56 type  1   force =     0.00020308   -0.00074702   -0.00074702
     atom   57 type  1   force =    -0.00017076    0.00070099   -0.00044858
     atom   58 type  1   force =     0.00074702   -0.00020308   -0.00074702
     atom   59 type  1   force =     0.00034284    0.00068943   -0.00034284
     atom   60 type  1   force =    -0.00036776    0.00037849    0.00037849
     atom   61 type  1   force =    -0.00037019   -0.00049670   -0.00001850
     atom   62 type  1   force =     0.00044858    0.00017076    0.00070099
     atom   63 type  2   force =    -0.00018869    0.00018869    0.00018869
     The non-local contrib.  to forces
     atom    1 type  1   force =    -0.00504779    0.00504779    0.00504779
     atom    2 type  1   force =     0.01419332   -0.01419332    0.02050010
     atom    3 type  1   force =     0.00452035   -0.00452035    0.02360899
     atom    4 type  1   force =    -0.01386774    0.01386774   -0.00295051
     atom    5 type  1   force =    -0.02050010   -0.01419332   -0.01419332
     atom    6 type  1   force =    -0.14634892   -0.15654687    0.14634892
     atom    7 type  1   force =     0.08867299    0.06730719   -0.08509428
     atom    8 type  1   force =    -0.00475517    0.02467735    0.00571956
     atom    9 type  1   force =    -0.02360899   -0.00452035   -0.00452035
     atom   10 type  1   force =     0.08509428    0.06730719   -0.08867299
     atom   11 type  1   force =     0.00452035    0.02360899   -0.00452035
     atom   12 type  1   force =    -0.06730719   -0.08509428   -0.08867299
     atom   13 type  1   force =     0.00295051    0.01386774    0.01386774
     atom   14 type  1   force =    -0.00571956    0.02467735    0.00475517
     atom   15 type  1   force =     0.08867299   -0.08509428    0.06730719
     atom   16 type  1   force =    -0.07617727    0.05592796    0.07617727
     atom   17 type  1   force =     0.01419332    0.02050010   -0.01419332
     atom   18 type  1   force =     0.15654687    0.14634892    0.14634892
     atom   19 type  1   force =    -0.06730719   -0.08867299   -0.08509428
     atom   20 type  1   force =    -0.02467735    0.00475517    0.00571956
     atom   21 type  1   force =    -0.14634892    0.14634892   -0.15654687
     atom   22 type  1   force =    -0.07617727    0.07617727    0.05592796
     atom   23 type  1   force =    -0.01653834    0.01653834   -0.03511301
     atom   24 type  1   force =     0.08509428   -0.08867299    0.06730719
     atom   25 type  1   force =    -0.05592796    0.07617727    0.07617727
     atom   26 type  1   force =    -0.01386774   -0.00295051    0.01386774
     atom   27 type  1   force =    -0.02467735    0.00571956    0.00475517
     atom   28 type  1   force =    -0.00571956    0.00475517    0.02467735
     atom   29 type  1   force =     0.03511301    0.01653834    0.01653834
     atom   30 type  1   force =    -0.00475517    0.00571956    0.02467735
     atom   31 type  1   force =    -0.01653834   -0.03511301    0.01653834
     atom   32 type  1   force =    -0.01619773   -0.00527715   -0.00527715
     atom   33 type  1   force =    -0.00508942   -0.01992302    0.00508942
     atom   34 type  1   force =     0.05185495   -0.03109531   -0.02286357
     atom   35 type  1   force =    -0.07335231    0.03209997   -0.01996487
     atom   36 type  1   force =    -0.05580501   -0.00803430   -0.00803430
     atom   37 type  1   force =     0.02286357   -0.03109531   -0.05185495
     atom   38 type  1   force =     0.00803430    0.05580501   -0.00803430
     atom   39 type  1   force =     0.03109531   -0.02286357   -0.05185495
     atom   40 type  1   force =    -0.05581785    0.00002378    0.00002378
     atom   41 type  1   force =     0.01996487    0.03209997    0.07335231
     atom   42 type  1   force =     0.05185495   -0.02286357   -0.03109531
     atom   43 type  1   force =    -0.26975680   -0.25449335    0.26975680
     atom   44 type  1   force =    -0.01416286    0.01416286    0.01416286
     atom   45 type  1   force =     0.00527715   -0.00527715    0.01619773
     atom   46 type  1   force =     0.00803430   -0.00803430    0.05580501
     atom   47 type  1   force =    -0.00002378    0.00002378    0.05581785
     atom   48 type  1   force =    -0.00508942    0.00508942   -0.01992302
     atom   49 type  1   force =    -0.26975680    0.26975680   -0.25449335
     atom   50 type  1   force =    -0.02875398    0.02875398   -0.07356037
     atom   51 type  1   force =     0.02286357   -0.05185495   -0.03109531
     atom   52 type  1   force =     0.25449335    0.26975680    0.26975680
     atom   53 type  1   force =    -0.00002378    0.05581785    0.00002378
     atom   54 type  1   force =    -0.03209997   -0.01996487    0.07335231
     atom   55 type  1   force =     0.01996487    0.07335231    0.03209997
     atom   56 type  1   force =     0.07356037    0.02875398    0.02875398
     atom   57 type  1   force =    -0.07335231   -0.01996487    0.03209997
     atom   58 type  1   force =    -0.02875398   -0.07356037    0.02875398
     atom   59 type  1   force =     0.00527715    0.01619773   -0.00527715
     atom   60 type  1   force =     0.01992302    0.00508942    0.00508942
     atom   61 type  1   force =     0.03109531   -0.05185495   -0.02286357
     atom   62 type  1   force =    -0.03209997    0.07335231   -0.01996487
     atom   63 type  2   force =     0.66551087   -0.66551087   -0.66551087
     The ionic contribution  to forces
     atom    1 type  1   force =     0.01809344   -0.01809369   -0.01809022
     atom    2 type  1   force =    -0.11573802    0.11573591   -0.25512791
     atom    3 type  1   force =    -0.07129168    0.07129306   -0.20208857
     atom    4 type  1   force =     0.16684306   -0.16684106   -0.06862341
     atom    5 type  1   force =     0.25512861    0.11573633    0.11573748
     atom    6 type  1   force =    -0.25138080    1.02715205    0.25137917
     atom    7 type  1   force =     0.41226026   -0.63174742    0.77030540
     atom    8 type  1   force =     0.13973883    0.00259250    0.20756905
     atom    9 type  1   force =     0.20209022    0.07129222    0.07128711
     atom   10 type  1   force =    -0.77030852   -0.63174574   -0.41226047
     atom   11 type  1   force =    -0.07129373   -0.20208975    0.07129336
     atom   12 type  1   force =     0.63174939    0.77030274   -0.41226320
     atom   13 type  1   force =     0.06862549   -0.16684124   -0.16683920
     atom   14 type  1   force =    -0.20756976    0.00259270   -0.13973711
     atom   15 type  1   force =     0.41226145    0.77030647   -0.63174973
     atom   16 type  1   force =     0.81015401    0.43180662   -0.81015003
     atom   17 type  1   force =    -0.11573872   -0.25512929    0.11573548
     atom   18 type  1   force =    -1.02715239    0.25137887    0.25138147
     atom   19 type  1   force =     0.63175005   -0.41225941    0.77030466
     atom   20 type  1   force =    -0.00259353   -0.13973771    0.20756880
     atom   21 type  1   force =    -0.25138363    0.25138201    1.02714802
     atom   22 type  1   force =     0.81015091   -0.81014988    0.43180231
     atom   23 type  1   force =     0.04383812   -0.04383410   -0.03205866
     atom   24 type  1   force =    -0.77030723   -0.41226094   -0.63174599
     atom   25 type  1   force =    -0.43180446   -0.81014979   -0.81014758
     atom   26 type  1   force =     0.16684509   -0.06862722   -0.16684551
     atom   27 type  1   force =    -0.00259430    0.20756818   -0.13973459
     atom   28 type  1   force =    -0.20757004   -0.13973644    0.00259245
     atom   29 type  1   force =     0.03205866   -0.04383369   -0.04383152
     atom   30 type  1   force =     0.13974013    0.20756656    0.00259567
     atom   31 type  1   force =     0.04383582   -0.03206003   -0.04383149
     atom   32 type  1   force =     0.07784856    0.04624433    0.04624545
     atom   33 type  1   force =     0.07716064    0.11464909   -0.07716089
     atom   34 type  1   force =    -0.18081066    0.00784452    0.47804608
     atom   35 type  1   force =     0.04643404   -0.17932222    0.13253143
     atom   36 type  1   force =     0.72356822    0.23533370    0.23533433
     atom   37 type  1   force =    -0.47804619    0.00784428    0.18080882
     atom   38 type  1   force =    -0.23533462   -0.72356675    0.23533357
     atom   39 type  1   force =    -0.00784592    0.47804616    0.18081104
     atom   40 type  1   force =     0.71316586   -0.20336098   -0.20336118
     atom   41 type  1   force =    -0.13253241   -0.17932154   -0.04643352
     atom   42 type  1   force =    -0.18081364    0.47804490    0.00784448
     atom   43 type  1   force =     2.07262690    2.40328539   -2.07262476
     atom   44 type  1   force =     0.08118952   -0.08119151   -0.08119019
     atom   45 type  1   force =    -0.04624701    0.04624475   -0.07784871
     atom   46 type  1   force =    -0.23533397    0.23533541   -0.72356771
     atom   47 type  1   force =     0.20336305   -0.20336048   -0.71316475
     atom   48 type  1   force =     0.07715981   -0.07716066    0.11464673
     atom   49 type  1   force =     2.07262340   -2.07262436    2.40328315
     atom   50 type  1   force =     0.16945248   -0.16944881    0.08948556
     atom   51 type  1   force =    -0.47804905    0.18081035    0.00784492
     atom   52 type  1   force =    -2.40328604   -2.07262435   -2.07262534
     atom   53 type  1   force =     0.20336266   -0.71315938   -0.20336207
     atom   54 type  1   force =     0.17932486    0.13252784   -0.04643724
     atom   55 type  1   force =    -0.13253394   -0.04643142   -0.17932400
     atom   56 type  1   force =    -0.08948544   -0.16945053   -0.16944982
     atom   57 type  1   force =     0.04643424    0.13253034   -0.17932025
     atom   58 type  1   force =     0.16944857    0.08948520   -0.16944894
     atom   59 type  1   force =    -0.04624688   -0.07784727    0.04624521
     atom   60 type  1   force =    -0.11464914   -0.07716403   -0.07716157
     atom   61 type  1   force =    -0.00784672    0.18081218    0.47804663
     atom   62 type  1   force =     0.17932462   -0.04643456    0.13253232
     atom   63 type  2   force =    -3.01186256    3.01186155    3.01186599
     The local contribution  to forces
     atom    1 type  1   force =    -0.01260753    0.01260753    0.01260753
     atom    2 type  1   force =     0.10164390   -0.10164558    0.23524348
     atom    3 type  1   force =     0.06672274   -0.06672274    0.17865870
     atom    4 type  1   force =    -0.15300511    0.15300675    0.07234193
     atom    5 type  1   force =    -0.23524352   -0.10164558   -0.10164726
     atom    6 type  1   force =     0.39771846   -0.87018190   -0.39772172
     atom    7 type  1   force =    -0.50062881    0.56430659   -0.68517030
     atom    8 type  1   force =    -0.13573325   -0.02801163   -0.21328456
     atom    9 type  1   force =    -0.17865867   -0.06672269   -0.06672605
     atom   10 type  1   force =     0.68516807    0.56430609    0.50062581
     atom   11 type  1   force =     0.06672274    0.17865870   -0.06672274
     atom   12 type  1   force =    -0.56430615   -0.68516898    0.50062590
     atom   13 type  1   force =    -0.07234195    0.15300676    0.15300676
     atom   14 type  1   force =     0.21328293   -0.02801166    0.13573487
     atom   15 type  1   force =    -0.50062827   -0.68516817    0.56430289
     atom   16 type  1   force =    -0.73374124   -0.48748180    0.73373961
     atom   17 type  1   force =     0.10164390    0.23524350   -0.10164726
     atom   18 type  1   force =     0.87018206   -0.39772183   -0.39772020
     atom   19 type  1   force =    -0.56430494    0.50062881   -0.68517203
     atom   20 type  1   force =     0.02801168    0.13573492   -0.21328624
     atom   21 type  1   force =     0.39771862   -0.39771941   -0.87018444
     atom   22 type  1   force =    -0.73374217    0.73374380   -0.48748632
     atom   23 type  1   force =    -0.02694213    0.02694213    0.06718455
     atom   24 type  1   force =     0.68516843    0.50062864    0.56430646
     atom   25 type  1   force =     0.48748093    0.73374326    0.73374326
     atom   26 type  1   force =    -0.15300674    0.07234192    0.15300346
     atom   27 type  1   force =     0.02801167   -0.21328458    0.13573489
     atom   28 type  1   force =     0.21328293    0.13573487   -0.02801166
     atom   29 type  1   force =    -0.06718455    0.02694213    0.02694213
     atom   30 type  1   force =    -0.13573325   -0.21328456   -0.02801163
     atom   31 type  1   force =    -0.02694213    0.06718455    0.02694213
     atom   32 type  1   force =    -0.06234510   -0.04130460   -0.04130545
     atom   33 type  1   force =    -0.07245789   -0.09434416    0.07245525
     atom   34 type  1   force =     0.12944363    0.02363059   -0.45519612
     atom   35 type  1   force =     0.02673683    0.14678314   -0.11185752
     atom   36 type  1   force =    -0.66807062   -0.22742323   -0.22742483
     atom   37 type  1   force =     0.45519622    0.02363066   -0.12944693
     atom   38 type  1   force =     0.22742327    0.66807155   -0.22742487
     atom   39 type  1   force =    -0.02363215   -0.45519482   -0.12944362
     atom   40 type  1   force =    -0.65794885    0.20344724    0.20344411
     atom   41 type  1   force =     0.11185403    0.14678320   -0.02673863
     atom   42 type  1   force =     0.12944363   -0.45519612    0.02363059
     atom   43 type  1   force =    -1.80274776   -2.14901691    1.80274662
     atom   44 type  1   force =    -0.06694237    0.06694073    0.06694073
     atom   45 type  1   force =     0.04130196   -0.04130281    0.06234249
     atom   46 type  1   force =     0.22742305   -0.22742305    0.66806782
     atom   47 type  1   force =    -0.20344553    0.20344394    0.65794600
     atom   48 type  1   force =    -0.07245769    0.07245727   -0.09434758
     atom   49 type  1   force =    -1.80274841    1.80274726   -2.14901877
     atom   50 type  1   force =    -0.13995598    0.13995687   -0.01612051
     atom   51 type  1   force =     0.45519243   -0.12944353    0.02363044
     atom   52 type  1   force =     2.14901754    1.80274951    1.80274726
     atom   53 type  1   force =    -0.20344582    0.65795344    0.20344423
     atom   54 type  1   force =    -0.14678215   -0.11185656   -0.02674198
     atom   55 type  1   force =     0.11185422   -0.02673535    0.14677991
     atom   56 type  1   force =     0.01611864    0.13995351    0.13995351
     atom   57 type  1   force =     0.02673685   -0.11185665    0.14678317
     atom   58 type  1   force =    -0.13995691   -0.01611873    0.13995339
     atom   59 type  1   force =     0.04130205    0.06234589   -0.04130456
     atom   60 type  1   force =     0.09434426    0.07245539    0.07245450
     atom   61 type  1   force =    -0.02363221   -0.12944366   -0.45519620
     atom   62 type  1   force =    -0.14678137   -0.02673860   -0.11185754
     atom   63 type  2   force =     2.34615319   -2.34615319   -2.34615319
     The core correction contribution to forces
     atom    1 type  1   force =     0.00000000    0.00000000    0.00000000
     atom    2 type  1   force =     0.00000000    0.00000000    0.00000000
     atom    3 type  1   force =     0.00000000    0.00000000    0.00000000
     atom    4 type  1   force =     0.00000000    0.00000000    0.00000000
     atom    5 type  1   force =     0.00000000    0.00000000    0.00000000
     atom    6 type  1   force =     0.00000000    0.00000000    0.00000000
     atom    7 type  1   force =     0.00000000    0.00000000    0.00000000
     atom    8 type  1   force =     0.00000000    0.00000000    0.00000000
     atom    9 type  1   force =     0.00000000    0.00000000    0.00000000
     atom   10 type  1   force =     0.00000000    0.00000000    0.00000000
     atom   11 type  1   force =     0.00000000    0.00000000    0.00000000
     atom   12 type  1   force =     0.00000000    0.00000000    0.00000000
     atom   13 type  1   force =     0.00000000    0.00000000    0.00000000
     atom   14 type  1   force =     0.00000000    0.00000000    0.00000000
     atom   15 type  1   force =     0.00000000    0.00000000    0.00000000
     atom   16 type  1   force =     0.00000000    0.00000000    0.00000000
     atom   17 type  1   force =     0.00000000    0.00000000    0.00000000
     atom   18 type  1   force =     0.00000000    0.00000000    0.00000000
     atom   19 type  1   force =     0.00000000    0.00000000    0.00000000
     atom   20 type  1   force =     0.00000000    0.00000000    0.00000000
     atom   21 type  1   force =     0.00000000    0.00000000    0.00000000
     atom   22 type  1   force =     0.00000000    0.00000000    0.00000000
     atom   23 type  1   force =     0.00000000    0.00000000    0.00000000
     atom   24 type  1   force =     0.00000000    0.00000000    0.00000000
     atom   25 type  1   force =     0.00000000    0.00000000    0.00000000
     atom   26 type  1   force =     0.00000000    0.00000000    0.00000000
     atom   27 type  1   force =     0.00000000    0.00000000    0.00000000
     atom   28 type  1   force =     0.00000000    0.00000000    0.00000000
     atom   29 type  1   force =     0.00000000    0.00000000    0.00000000
     atom   30 type  1   force =     0.00000000    0.00000000    0.00000000
     atom   31 type  1   force =     0.00000000    0.00000000    0.00000000
     atom   32 type  1   force =     0.00000000    0.00000000    0.00000000
     atom   33 type  1   force =     0.00000000    0.00000000    0.00000000
     atom   34 type  1   force =     0.00000000    0.00000000    0.00000000
     atom   35 type  1   force =     0.00000000    0.00000000    0.00000000
     atom   36 type  1   force =     0.00000000    0.00000000    0.00000000
     atom   37 type  1   force =     0.00000000    0.00000000    0.00000000
     atom   38 type  1   force =     0.00000000    0.00000000    0.00000000
     atom   39 type  1   force =     0.00000000    0.00000000    0.00000000
     atom   40 type  1   force =     0.00000000    0.00000000    0.00000000
     atom   41 type  1   force =     0.00000000    0.00000000    0.00000000
     atom   42 type  1   force =     0.00000000    0.00000000    0.00000000
     atom   43 type  1   force =     0.00000000    0.00000000    0.00000000
     atom   44 type  1   force =     0.00000000    0.00000000    0.00000000
     atom   45 type  1   force =     0.00000000    0.00000000    0.00000000
     atom   46 type  1   force =     0.00000000    0.00000000    0.00000000
     atom   47 type  1   force =     0.00000000    0.00000000    0.00000000
     atom   48 type  1   force =     0.00000000    0.00000000    0.00000000
     atom   49 type  1   force =     0.00000000    0.00000000    0.00000000
     atom   50 type  1   force =     0.00000000    0.00000000    0.00000000
     atom   51 type  1   force =     0.00000000    0.00000000    0.00000000
[...]
     atom   10 type  1   force =     0.00000000    0.00000000    0.00000000
     atom   11 type  1   force =     0.00000000    0.00000000    0.00000000
     atom   12 type  1   force =     0.00000000    0.00000000    0.00000000
     atom   13 type  1   force =     0.00000000    0.00000000    0.00000000
     atom   14 type  1   force =     0.00000000    0.00000000    0.00000000
     atom   15 type  1   force =     0.00000000    0.00000000    0.00000000
     atom   16 type  1   force =     0.00000000    0.00000000    0.00000000
     atom   17 type  1   force =     0.00000000    0.00000000    0.00000000
     atom   18 type  1   force =     0.00000000    0.00000000    0.00000000
     atom   19 type  1   force =     0.00000000    0.00000000    0.00000000
     atom   20 type  1   force =     0.00000000    0.00000000    0.00000000
     atom   21 type  1   force =     0.00000000    0.00000000    0.00000000
     atom   22 type  1   force =     0.00000000    0.00000000    0.00000000
     atom   23 type  1   force =     0.00000000    0.00000000    0.00000000
     atom   24 type  1   force =     0.00000000    0.00000000    0.00000000
     atom   25 type  1   force =     0.00000000    0.00000000    0.00000000
     atom   26 type  1   force =     0.00000000    0.00000000    0.00000000
     atom   27 type  1   force =     0.00000000    0.00000000    0.00000000
     atom   28 type  1   force =     0.00000000    0.00000000    0.00000000
     atom   29 type  1   force =     0.00000000    0.00000000    0.00000000
     atom   30 type  1   force =     0.00000000    0.00000000    0.00000000
     atom   31 type  1   force =     0.00000000    0.00000000    0.00000000
     atom   32 type  1   force =     0.00000000    0.00000000    0.00000000
     atom   33 type  1   force =     0.00000000    0.00000000    0.00000000
     atom   34 type  1   force =     0.00000000    0.00000000    0.00000000
     atom   35 type  1   force =     0.00000000    0.00000000    0.00000000
     atom   36 type  1   force =     0.00000000    0.00000000    0.00000000
     atom   37 type  1   force =     0.00000000    0.00000000    0.00000000
     atom   38 type  1   force =     0.00000000    0.00000000    0.00000000
     atom   39 type  1   force =     0.00000000    0.00000000    0.00000000
     atom   40 type  1   force =     0.00000000    0.00000000    0.00000000
     atom   41 type  1   force =     0.00000000    0.00000000    0.00000000
     atom   42 type  1   force =     0.00000000    0.00000000    0.00000000
     atom   43 type  1   force =     0.00000000    0.00000000    0.00000000
     atom   44 type  1   force =     0.00000000    0.00000000    0.00000000
     atom   45 type  1   force =     0.00000000    0.00000000    0.00000000
     atom   46 type  1   force =     0.00000000    0.00000000    0.00000000
     atom   47 type  1   force =     0.00000000    0.00000000    0.00000000
     atom   48 type  1   force =     0.00000000    0.00000000    0.00000000
     atom   49 type  1   force =     0.00000000    0.00000000    0.00000000
     atom   50 type  1   force =     0.00000000    0.00000000    0.00000000
     atom   51 type  1   force =     0.00000000    0.00000000    0.00000000
     atom   52 type  1   force =     0.00000000    0.00000000    0.00000000
     atom   53 type  1   force =     0.00000000    0.00000000    0.00000000
     atom   54 type  1   force =     0.00000000    0.00000000    0.00000000
     atom   55 type  1   force =     0.00000000    0.00000000    0.00000000
     atom   56 type  1   force =     0.00000000    0.00000000    0.00000000
     atom   57 type  1   force =     0.00000000    0.00000000    0.00000000
     atom   58 type  1   force =     0.00000000    0.00000000    0.00000000
     atom   59 type  1   force =     0.00000000    0.00000000    0.00000000
     atom   60 type  1   force =     0.00000000    0.00000000    0.00000000
     atom   61 type  1   force =     0.00000000    0.00000000    0.00000000
     atom   62 type  1   force =     0.00000000    0.00000000    0.00000000
     atom   63 type  2   force =     0.00000000    0.00000000    0.00000000
     The Hubbard contrib.    to forces
     atom    1 type  1   force =     0.00000000    0.00000000    0.00000000
     atom    2 type  1   force =     0.00000000    0.00000000    0.00000000
     atom    3 type  1   force =     0.00000000    0.00000000    0.00000000
     atom    4 type  1   force =     0.00000000    0.00000000    0.00000000
     atom    5 type  1   force =     0.00000000    0.00000000    0.00000000
     atom    6 type  1   force =     0.00000000    0.00000000    0.00000000
     atom    7 type  1   force =     0.00000000    0.00000000    0.00000000
     atom    8 type  1   force =     0.00000000    0.00000000    0.00000000
     atom    9 type  1   force =     0.00000000    0.00000000    0.00000000
     atom   10 type  1   force =     0.00000000    0.00000000    0.00000000
     atom   11 type  1   force =     0.00000000    0.00000000    0.00000000
     atom   12 type  1   force =     0.00000000    0.00000000    0.00000000
     atom   13 type  1   force =     0.00000000    0.00000000    0.00000000
     atom   14 type  1   force =     0.00000000    0.00000000    0.00000000
     atom   15 type  1   force =     0.00000000    0.00000000    0.00000000
     atom   16 type  1   force =     0.00000000    0.00000000    0.00000000
     atom   17 type  1   force =     0.00000000    0.00000000    0.00000000
     atom   18 type  1   force =     0.00000000    0.00000000    0.00000000
     atom   19 type  1   force =     0.00000000    0.00000000    0.00000000
     atom   20 type  1   force =     0.00000000    0.00000000    0.00000000
     atom   21 type  1   force =     0.00000000    0.00000000    0.00000000
     atom   22 type  1   force =     0.00000000    0.00000000    0.00000000
     atom   23 type  1   force =     0.00000000    0.00000000    0.00000000
     atom   24 type  1   force =     0.00000000    0.00000000    0.00000000
     atom   25 type  1   force =     0.00000000    0.00000000    0.00000000
     atom   26 type  1   force =     0.00000000    0.00000000    0.00000000
     atom   27 type  1   force =     0.00000000    0.00000000    0.00000000
     atom   28 type  1   force =     0.00000000    0.00000000    0.00000000
     atom   29 type  1   force =     0.00000000    0.00000000    0.00000000
     atom   30 type  1   force =     0.00000000    0.00000000    0.00000000
     atom   31 type  1   force =     0.00000000    0.00000000    0.00000000
     atom   32 type  1   force =     0.00000000    0.00000000    0.00000000
     atom   33 type  1   force =     0.00000000    0.00000000    0.00000000
     atom   34 type  1   force =     0.00000000    0.00000000    0.00000000
     atom   35 type  1   force =     0.00000000    0.00000000    0.00000000
     atom   36 type  1   force =     0.00000000    0.00000000    0.00000000
     atom   37 type  1   force =     0.00000000    0.00000000    0.00000000
     atom   38 type  1   force =     0.00000000    0.00000000    0.00000000
     atom   39 type  1   force =     0.00000000    0.00000000    0.00000000
     atom   40 type  1   force =     0.00000000    0.00000000    0.00000000
     atom   41 type  1   force =     0.00000000    0.00000000    0.00000000
     atom   42 type  1   force =     0.00000000    0.00000000    0.00000000
     atom   43 type  1   force =     0.00000000    0.00000000    0.00000000
     atom   44 type  1   force =     0.00000000    0.00000000    0.00000000
     atom   45 type  1   force =     0.00000000    0.00000000    0.00000000
     atom   46 type  1   force =     0.00000000    0.00000000    0.00000000
     atom   47 type  1   force =     0.00000000    0.00000000    0.00000000
     atom   48 type  1   force =     0.00000000    0.00000000    0.00000000
     atom   49 type  1   force =     0.00000000    0.00000000    0.00000000
     atom   50 type  1   force =     0.00000000    0.00000000    0.00000000
     atom   51 type  1   force =     0.00000000    0.00000000    0.00000000
     atom   52 type  1   force =     0.00000000    0.00000000    0.00000000
     atom   53 type  1   force =     0.00000000    0.00000000    0.00000000
     atom   54 type  1   force =     0.00000000    0.00000000    0.00000000
     atom   55 type  1   force =     0.00000000    0.00000000    0.00000000
     atom   56 type  1   force =     0.00000000    0.00000000    0.00000000
     atom   57 type  1   force =     0.00000000    0.00000000    0.00000000
     atom   58 type  1   force =     0.00000000    0.00000000    0.00000000
     atom   59 type  1   force =     0.00000000    0.00000000    0.00000000
     atom   60 type  1   force =     0.00000000    0.00000000    0.00000000
     atom   61 type  1   force =     0.00000000    0.00000000    0.00000000
     atom   62 type  1   force =     0.00000000    0.00000000    0.00000000
     atom   63 type  2   force =     0.00000000    0.00000000    0.00000000
     The SCF correction term to forces
     atom    1 type  1   force =    -0.00000024    0.00000024    0.00000024
     atom    2 type  1   force =    -0.00000023    0.00000023    0.00000002
     atom    3 type  1   force =     0.00000011   -0.00000011   -0.00000004
     atom    4 type  1   force =     0.00000041   -0.00000041    0.00000040
     atom    5 type  1   force =    -0.00000002    0.00000023    0.00000023
     atom    6 type  1   force =    -0.00000016    0.00000007    0.00000016
     atom    7 type  1   force =     0.00000005   -0.00000007    0.00000023
     atom    8 type  1   force =     0.00000014   -0.00000000    0.00000030
     atom    9 type  1   force =     0.00000004   -0.00000011   -0.00000011
     atom   10 type  1   force =    -0.00000023   -0.00000007   -0.00000005
     atom   11 type  1   force =     0.00000011   -0.00000004   -0.00000011
     atom   12 type  1   force =     0.00000007    0.00000023   -0.00000005
     atom   13 type  1   force =    -0.00000040   -0.00000041   -0.00000041
     atom   14 type  1   force =    -0.00000030   -0.00000000   -0.00000014
     atom   15 type  1   force =     0.00000005    0.00000023   -0.00000007
     atom   16 type  1   force =     0.00000029   -0.00000037   -0.00000029
     atom   17 type  1   force =    -0.00000023    0.00000002    0.00000023
     atom   18 type  1   force =    -0.00000007    0.00000016    0.00000016
     atom   19 type  1   force =     0.00000007   -0.00000005    0.00000023
     atom   20 type  1   force =     0.00000000   -0.00000014    0.00000030
     atom   21 type  1   force =    -0.00000016    0.00000016    0.00000007
     atom   22 type  1   force =     0.00000029   -0.00000029   -0.00000037
     atom   23 type  1   force =    -0.00000010    0.00000010   -0.00000012
     atom   24 type  1   force =    -0.00000023   -0.00000005   -0.00000007
     atom   25 type  1   force =     0.00000037   -0.00000029   -0.00000029
     atom   26 type  1   force =     0.00000041    0.00000040   -0.00000041
     atom   27 type  1   force =     0.00000000    0.00000030   -0.00000014
     atom   28 type  1   force =    -0.00000030   -0.00000014   -0.00000000
     atom   29 type  1   force =     0.00000012    0.00000010    0.00000010
     atom   30 type  1   force =     0.00000014    0.00000030   -0.00000000
     atom   31 type  1   force =    -0.00000010   -0.00000012    0.00000010
     atom   32 type  1   force =    -0.00000016    0.00000019    0.00000019
     atom   33 type  1   force =    -0.00000029    0.00000004    0.00000029
     atom   34 type  1   force =     0.00000002   -0.00000008    0.00000028
     atom   35 type  1   force =     0.00000023   -0.00000021    0.00000052
     atom   36 type  1   force =    -0.00000005   -0.00000000   -0.00000000
     atom   37 type  1   force =    -0.00000028   -0.00000008   -0.00000002
     atom   38 type  1   force =     0.00000000    0.00000005   -0.00000000
     atom   39 type  1   force =     0.00000008    0.00000028   -0.00000002
     atom   40 type  1   force =     0.00000003   -0.00000049   -0.00000049
     atom   41 type  1   force =    -0.00000052   -0.00000021   -0.00000023
     atom   42 type  1   force =     0.00000002    0.00000028   -0.00000008
     atom   43 type  1   force =     0.00000022    0.00000001   -0.00000022
     atom   44 type  1   force =    -0.00000008    0.00000008    0.00000008
     atom   45 type  1   force =    -0.00000019    0.00000019    0.00000016
     atom   46 type  1   force =     0.00000000   -0.00000000    0.00000005
     atom   47 type  1   force =     0.00000049   -0.00000049   -0.00000003
     atom   48 type  1   force =    -0.00000029    0.00000029    0.00000004
     atom   49 type  1   force =     0.00000022   -0.00000022    0.00000001
     atom   50 type  1   force =     0.00000018   -0.00000018   -0.00000010
     atom   51 type  1   force =    -0.00000028   -0.00000002   -0.00000008
     atom   52 type  1   force =    -0.00000001   -0.00000022   -0.00000022
     atom   53 type  1   force =     0.00000049   -0.00000003   -0.00000049
     atom   54 type  1   force =     0.00000021    0.00000052   -0.00000023
     atom   55 type  1   force =    -0.00000052   -0.00000023   -0.00000021
     atom   56 type  1   force =     0.00000010   -0.00000018   -0.00000018
     atom   57 type  1   force =     0.00000023    0.00000052   -0.00000021
     atom   58 type  1   force =     0.00000018   -0.00000010   -0.00000018
     atom   59 type  1   force =    -0.00000019    0.00000016    0.00000019
     atom   60 type  1   force =    -0.00000004    0.00000029    0.00000029
     atom   61 type  1   force =     0.00000008   -0.00000002    0.00000028
     atom   62 type  1   force =     0.00000021   -0.00000023    0.00000052
     atom   63 type  2   force =    -0.00000030    0.00000030    0.00000030

     Total force =     0.000465     Total SCF correction =     0.000003

     bfgs converged in   4 scf cycles and   3 bfgs steps
     (criteria: energy <  1.0E-05 Ry, force <  1.0E-04 Ry/Bohr)

     End of BFGS Geometry Optimization

     Final energy   =    -724.7075646918 Ry
Begin final coordinates

ATOMIC_POSITIONS (crystal)
C        0.000203094  -0.000203094  -0.000203094
C        0.749650673   0.250349360  -0.000793966
C        0.500085284   0.499914716  -0.000466337
C        0.250460076   0.749539891  -0.000790192
C        0.000793966   0.250349360   0.250349393
C        0.748515905   0.496531632   0.251484161
C        0.497865680   0.748728076   0.250910584
C        0.250771201   0.000770200   0.250045178
C        0.000466337   0.499914716   0.499914783
C        0.749089449   0.748728076   0.502134387
C        0.500085284  -0.000466337   0.499914716
C        0.251271924   0.250910567   0.502134387
C        0.000790192   0.749539891   0.749539891
C        0.749954855   0.000770200   0.749228766
C        0.497865680   0.250910551   0.748728142
C        0.251360250   0.498301750   0.748639783
C        0.749650673  -0.000793966   0.250349393
C        0.503468368   0.251484161   0.251484128
C        0.251271891   0.502134320   0.250910617
C       -0.000770200   0.749228766   0.250045211
C        0.748515905   0.251484111   0.496531699
C        0.251360250   0.748639717   0.498301850
C       -0.000514279   0.000514279   0.500230413
C        0.749089449   0.502134320   0.748728076
C        0.501698284   0.748639717   0.748639717
C        0.250460109  -0.000790192   0.749539957
C       -0.000770200   0.250045178   0.749228766
C        0.749954855   0.749228766   0.000770200
C        0.499769587   0.000514279   0.000514279
C        0.250771201   0.250045178   0.000770200
C       -0.000514279   0.500230413   0.000514279
C        0.125493541   0.125234247   0.125234264
C        0.875343736   0.374813885   0.124656314
C        0.623647895   0.623562008   0.126487554
C        0.375698815   0.876181986   0.123554517
C        0.126396195   0.375673929   0.375673963
C        0.873512446   0.623562008   0.376352172
C        0.624326071   0.873603788   0.375673963
C        0.376438026   0.126487529   0.376352105
C        0.126270096   0.624246575   0.624246642
C        0.876445550   0.876181986   0.624301219
C        0.623647895   0.126487554   0.623562008
C        0.363409230   0.361706381   0.636590804
C        0.125518475   0.874481558   0.874481558
C        0.874765803   0.125234214   0.874506509
C        0.624326071   0.375673929   0.873603855
C        0.375753392   0.624246642   0.873729954
C        0.875343736   0.124656272   0.374813952
C        0.363409230   0.636590804   0.361706415
C        0.123775747   0.876224236   0.375614949
C        0.873512513   0.376352105   0.623562008
C        0.638293619   0.636590737   0.636590804
C        0.375753392   0.873729820   0.624246642
C        0.123817997   0.123554500   0.624301286
C        0.876445550   0.624301152   0.876182053
C        0.624385085   0.876224303   0.876224303
C        0.375698815   0.123554500   0.876181986
C        0.123775764   0.375614915   0.876224303
C        0.874765803   0.874506442   0.125234247
C        0.625186115   0.124656314   0.124656331
C        0.376438026   0.376352105   0.126487554
C        0.123817980   0.624301219   0.123554517
N        0.631916910   0.368083090   0.368083090
End final coordinates



     Writing output data file di.save
 
     init_run     :      2.58s CPU      3.19s WALL (       1 calls)
     electrons    :     39.82s CPU     42.26s WALL (       4 calls)
     update_pot   :      0.36s CPU      0.52s WALL (       3 calls)
     forces       :      0.79s CPU      0.82s WALL (       4 calls)

     Called by init_run:
     wfcinit      :      0.36s CPU      0.62s WALL (       1 calls)
     wfcinit:atom :      0.00s CPU      0.00s WALL (       1 calls)
     wfcinit:wfcr :      0.35s CPU      0.58s WALL (       1 calls)
     potinit      :      0.54s CPU      0.59s WALL (       1 calls)

     Called by electrons:
     c_bands      :     34.80s CPU     36.69s WALL (      39 calls)
     sum_band     :      2.79s CPU      2.86s WALL (      39 calls)
     v_of_rho     :      1.50s CPU      1.52s WALL (      40 calls)
     v_h          :      0.05s CPU      0.05s WALL (      40 calls)
     v_xc         :      1.45s CPU      1.47s WALL (      40 calls)
     mix_rho      :      0.34s CPU      0.35s WALL (      39 calls)

     Called by c_bands:
     init_us_2    :      0.44s CPU      0.45s WALL (      79 calls)
     cegterg      :     32.23s CPU     34.00s WALL (      39 calls)

     Called by sum_band:

     Called by *egterg:
     h_psi        :     17.66s CPU     18.09s WALL (     183 calls)
     g_psi        :      0.09s CPU      0.09s WALL (     143 calls)
     cdiaghg      :      7.40s CPU      7.94s WALL (     176 calls)
     cegterg:over :      2.75s CPU      2.79s WALL (     143 calls)
     cegterg:upda :      2.64s CPU      2.65s WALL (     143 calls)
     cegterg:last :      1.01s CPU      1.02s WALL (      40 calls)
     cdiaghg:chol :      0.73s CPU      0.89s WALL (     176 calls)
     cdiaghg:inve :      0.44s CPU      0.45s WALL (     176 calls)
     cdiaghg:para :      0.68s CPU      0.77s WALL (     352 calls)

     Called by h_psi:
     h_psi:pot    :     17.36s CPU     17.79s WALL (     183 calls)
     h_psi:calbec :      3.15s CPU      3.26s WALL (     183 calls)
     vloc_psi     :     11.20s CPU     11.44s WALL (     183 calls)
     add_vuspsi   :      3.01s CPU      3.09s WALL (     183 calls)

     General routines
     calbec       :      3.59s CPU      3.71s WALL (     199 calls)
     fft          :      0.64s CPU      0.87s WALL (     848 calls)
     fftw         :     11.88s CPU     12.13s WALL (   38288 calls)
 
     Parallel routines
     fft_scatter  :      4.76s CPU      4.87s WALL (   39136 calls)
 
     PWSCF        :    47.22s CPU        54.33s WALL

 
   This run was terminated on:   8:39:36   2Aug2019            

=------------------------------------------------------------------------------=
   JOB DONE.
=------------------------------------------------------------------------------=
