
     Program PWSCF v.7.2 starts on 29Jan2024 at 11:21:37 

     This program is part of the open-source Quantum ESPRESSO suite
     for quantum simulation of materials; please cite
         "P. Giannozzi et al., J. Phys.:Condens. Matter 21 395502 (2009);
         "P. Giannozzi et al., J. Phys.:Condens. Matter 29 465901 (2017);
         "P. Giannozzi et al., J. Chem. Phys. 152 154105 (2020);
          URL http://www.quantum-espresso.org", 
     in publications or presentations arising from this work. More details at
     http://www.quantum-espresso.org/quote

     Parallel version (MPI), running on    32 processors

     MPI processes distributed on     2 nodes
     126860 MiB available memory on the printing compute node when the environment starts
 
     Reading input from relax.in

     Current dimensions of program PWSCF are:
     Max number of different atomic species (ntypx) = 10
     Max number of k-points (npk) =  40000
     Max angular momentum in pseudopotentials (lmaxx) =  4
     Message from routine setup:
     using ibrav=0 with symmetry is DISCOURAGED, use correct ibrav instead
 
     band groups division:  nbgrp     =       2
     R & G space division:  proc/nbgrp/npool/nimage =      16
     Subspace diagonalization in iterative solution of the eigenvalue problem:
     one sub-group per band group will be used
     scalapack distributed-memory algorithm (size of sub-group:  2*  2 procs)

 
     Parallelization info
     --------------------
     sticks:   dense  smooth     PW     G-vecs:    dense   smooth      PW
     Min         360     360     97                20692    20692    2915
     Max         361     361     98                20699    20699    2920
     Sum        5761    5761   1565               331093   331093   46681
 
     Using Slab Decomposition
 


     bravais-lattice index     =            0
     lattice parameter (alat)  =      13.4862  a.u.
     unit-cell volume          =    2452.8359 (a.u.)^3
     number of atoms/cell      =           63
     number of atomic types    =            2
     number of electrons       =       254.00
     number of Kohn-Sham states=          152
     kinetic-energy cutoff     =     100.0000  Ry
     charge density cutoff     =     400.0000  Ry
     scf convergence threshold =      1.0E-09
     mixing beta               =       0.5000
     number of iterations used =            8  plain     mixing
     energy convergence thresh.=      1.0E-05
     force convergence thresh. =      1.0E-04
     Exchange-correlation= PBE
                           (   1   4   3   4   0   0   0)
     nstep                     =           50


     celldm(1)=  13.486197  celldm(2)=   0.000000  celldm(3)=   0.000000
     celldm(4)=   0.000000  celldm(5)=   0.000000  celldm(6)=   0.000000

     crystal axes: (cart. coord. in units of alat)
               a(1) = (   1.000000   0.000000   0.000000 )  
               a(2) = (   0.000000   1.000000   0.000000 )  
               a(3) = (   0.000000   0.000000   1.000000 )  

     reciprocal axes: (cart. coord. in units 2 pi/alat)
               b(1) = (  1.000000  0.000000  0.000000 )  
               b(2) = (  0.000000  1.000000  0.000000 )  
               b(3) = (  0.000000  0.000000  1.000000 )  


     PseudoPot. # 1 for C  read from file:
     ~/Pseudopotential/pseudo-ONCV-proj/C_ONCV_PBE-1.0.upf
     MD5 check sum: Not computed, couldn't open file
     Pseudo is Norm-conserving, Zval =  4.0
     Generated using ONCVPSP code by D. R. Hamann
     Using radial grid of 1248 points,  4 beta functions with: 
                l(1) =   0
                l(2) =   0
                l(3) =   1
                l(4) =   1

     PseudoPot. # 2 for N  read from file:
     ~/Pseudopotential/pseudo-ONCV-proj/N_ONCV_PBE-1.0.upf
     MD5 check sum: Not computed, couldn't open file
     Pseudo is Norm-conserving, Zval =  5.0
     Generated using ONCVPSP code by D. R. Hamann
     Using radial grid of 1058 points,  4 beta functions with: 
                l(1) =   0
                l(2) =   0
                l(3) =   1
                l(4) =   1

     atomic species   valence    mass     pseudopotential
        C              4.00    12.01110     C ( 1.00)
        N              5.00    14.00670     N ( 1.00)

     Starting magnetic structure 
     atomic species   magnetization
        C            0.000
        N            1.000

      6 Sym. Ops. (no inversion) found


                                    s                        frac. trans.

      isym =  1     identity                                     

 cryst.   s( 1) = (     1          0          0      )
                  (     0          1          0      )
                  (     0          0          1      )

 cart.    s( 1) = (  1.0000000  0.0000000  0.0000000 )
                  (  0.0000000  1.0000000  0.0000000 )
                  (  0.0000000  0.0000000  1.0000000 )


      isym =  2     120 deg rotation - cart. axis [-1,1,1]       

 cryst.   s( 2) = (     0          0         -1      )
                  (    -1          0          0      )
                  (     0          1          0      )

 cart.    s( 2) = (  0.0000000 -1.0000000  0.0000000 )
                  (  0.0000000  0.0000000  1.0000000 )
                  ( -1.0000000  0.0000000  0.0000000 )


      isym =  3     120 deg rotation - cart. axis [1,-1,-1]      

 cryst.   s( 3) = (     0         -1          0      )
                  (     0          0          1      )
                  (    -1          0          0      )

 cart.    s( 3) = (  0.0000000  0.0000000 -1.0000000 )
                  ( -1.0000000  0.0000000  0.0000000 )
                  (  0.0000000  1.0000000  0.0000000 )


      isym =  4     inv. 180 deg rotation - cart. axis [1,1,0]   

 cryst.   s( 4) = (     0         -1          0      )
                  (    -1          0          0      )
                  (     0          0          1      )

 cart.    s( 4) = (  0.0000000 -1.0000000  0.0000000 )
                  ( -1.0000000  0.0000000  0.0000000 )
                  (  0.0000000  0.0000000  1.0000000 )


      isym =  5     inv. 180 deg rotation - cart. axis [1,0,1]   

 cryst.   s( 5) = (     0          0         -1      )
                  (     0          1          0      )
                  (    -1          0          0      )

 cart.    s( 5) = (  0.0000000  0.0000000 -1.0000000 )
                  (  0.0000000  1.0000000  0.0000000 )
                  ( -1.0000000  0.0000000  0.0000000 )


      isym =  6     inv. 180 deg rotation - cart. axis [0,1,-1]  

 cryst.   s( 6) = (     1          0          0      )
                  (     0          0          1      )
                  (     0          1          0      )

 cart.    s( 6) = (  1.0000000  0.0000000  0.0000000 )
                  (  0.0000000  0.0000000  1.0000000 )
                  (  0.0000000  1.0000000  0.0000000 )


   Cartesian axes

     site n.     atom                  positions (alat units)
         1           C   tau(   1) = (   0.0001362  -0.0001362  -0.0001362  )
         2           C   tau(   2) = (   0.7499676   0.2500325  -0.0013000  )
         3           C   tau(   3) = (   0.4998651   0.5001349   0.0001122  )
         4           C   tau(   4) = (   0.2501607   0.7498393   0.0001583  )
         5           C   tau(   5) = (   0.0013000   0.2500325   0.2500325  )
         6           C   tau(   6) = (   0.7496124   0.4943770   0.2503877  )
         7           C   tau(   7) = (   0.4984909   0.7481000   0.2526997  )
         8           C   tau(   8) = (   0.2510721   0.0009678   0.2504043  )
         9           C   tau(   9) = (  -0.0001122   0.5001349   0.5001350  )
        10           C   tau(  10) = (   0.7473003   0.7481000   0.5015091  )
        11           C   tau(  11) = (   0.4998651   0.0001122   0.5001349  )
        12           C   tau(  12) = (   0.2519000   0.2526997   0.5015091  )
        13           C   tau(  13) = (  -0.0001583   0.7498393   0.7498393  )
        14           C   tau(  14) = (   0.7495957   0.0009678   0.7489279  )
        15           C   tau(  15) = (   0.4984909   0.2526997   0.7481001  )
        16           C   tau(  16) = (   0.2504215   0.4992390   0.7495785  )
        17           C   tau(  17) = (   0.7499676  -0.0013000   0.2500325  )
        18           C   tau(  18) = (   0.5056230   0.2503877   0.2503877  )
        19           C   tau(  19) = (   0.2518999   0.5015091   0.2526998  )
        20           C   tau(  20) = (  -0.0009678   0.7489279   0.2504044  )
        21           C   tau(  21) = (   0.7496124   0.2503877   0.4943771  )
        22           C   tau(  22) = (   0.2504215   0.7495784   0.4992391  )
        23           C   tau(  23) = (  -0.0000386   0.0000386   0.4999672  )
        24           C   tau(  24) = (   0.7473003   0.5015091   0.7481000  )
        25           C   tau(  25) = (   0.5007611   0.7495784   0.7495784  )
        26           C   tau(  26) = (   0.2501607   0.0001583   0.7498394  )
        27           C   tau(  27) = (  -0.0009678   0.2504043   0.7489279  )
        28           C   tau(  28) = (   0.7495957   0.7489279   0.0009678  )
        29           C   tau(  29) = (   0.5000328   0.0000386   0.0000386  )
        30           C   tau(  30) = (   0.2510721   0.2504043   0.0009678  )
        31           C   tau(  31) = (  -0.0000386   0.4999672   0.0000386  )
        32           C   tau(  32) = (   0.1259164   0.1252516   0.1252516  )
        33           C   tau(  33) = (   0.8764465   0.3747508   0.1235536  )
        34           C   tau(  34) = (   0.6237121   0.6228769   0.1272087  )
        35           C   tau(  35) = (   0.3756712   0.8756450   0.1247392  )
        36           C   tau(  36) = (   0.1261110   0.3755800   0.3755800  )
        37           C   tau(  37) = (   0.8727913   0.6228769   0.3762880  )
        38           C   tau(  38) = (   0.6244200   0.8738889   0.3755800  )
        39           C   tau(  39) = (   0.3771232   0.1272086   0.3762879  )
        40           C   tau(  40) = (   0.1251949   0.6249905   0.6249906  )
        41           C   tau(  41) = (   0.8752609   0.8756450   0.6243288  )
        42           C   tau(  42) = (   0.6237121   0.1272087   0.6228769  )
        43           C   tau(  43) = (   0.3661907   0.3696872   0.6338093  )
        44           C   tau(  44) = (   0.1251559   0.8748441   0.8748441  )
        45           C   tau(  45) = (   0.8747485   0.1252516   0.8740836  )
        46           C   tau(  46) = (   0.6244200   0.3755800   0.8738890  )
        47           C   tau(  47) = (   0.3750094   0.6249906   0.8748052  )
        48           C   tau(  48) = (   0.8764465   0.1235535   0.3747508  )
        49           C   tau(  49) = (   0.3661907   0.6338093   0.3696873  )
        50           C   tau(  50) = (   0.1239838   0.8760162   0.3759929  )
        51           C   tau(  51) = (   0.8727914   0.3762879   0.6228769  )
        52           C   tau(  52) = (   0.6303128   0.6338092   0.6338093  )
        53           C   tau(  53) = (   0.3750094   0.8748050   0.6249906  )
        54           C   tau(  54) = (   0.1243550   0.1247391   0.6243289  )
        55           C   tau(  55) = (   0.8752609   0.6243287   0.8756451  )
        56           C   tau(  56) = (   0.6240071   0.8760163   0.8760163  )
        57           C   tau(  57) = (   0.3756712   0.1247391   0.8756450  )
        58           C   tau(  58) = (   0.1239838   0.3759929   0.8760163  )
        59           C   tau(  59) = (   0.8747485   0.8740836   0.1252516  )
        60           C   tau(  60) = (   0.6252492   0.1235536   0.1235536  )
        61           C   tau(  61) = (   0.3771232   0.3762879   0.1272087  )
        62           C   tau(  62) = (   0.1243549   0.6243288   0.1247392  )
        63           N   tau(  63) = (   0.6362864   0.3637136   0.3637136  )

   Crystallographic axes

     site n.     atom                  positions (cryst. coord.)
         1           C   tau(   1) = (  0.0001362 -0.0001362 -0.0001362  )
         2           C   tau(   2) = (  0.7499676  0.2500325 -0.0013000  )
         3           C   tau(   3) = (  0.4998651  0.5001349  0.0001122  )
         4           C   tau(   4) = (  0.2501607  0.7498393  0.0001583  )
         5           C   tau(   5) = (  0.0013000  0.2500325  0.2500325  )
         6           C   tau(   6) = (  0.7496124  0.4943770  0.2503877  )
         7           C   tau(   7) = (  0.4984909  0.7481000  0.2526997  )
         8           C   tau(   8) = (  0.2510721  0.0009678  0.2504043  )
         9           C   tau(   9) = ( -0.0001122  0.5001349  0.5001350  )
        10           C   tau(  10) = (  0.7473003  0.7481000  0.5015091  )
        11           C   tau(  11) = (  0.4998651  0.0001122  0.5001349  )
        12           C   tau(  12) = (  0.2519000  0.2526997  0.5015091  )
        13           C   tau(  13) = ( -0.0001583  0.7498393  0.7498393  )
        14           C   tau(  14) = (  0.7495957  0.0009678  0.7489279  )
        15           C   tau(  15) = (  0.4984909  0.2526997  0.7481001  )
        16           C   tau(  16) = (  0.2504215  0.4992390  0.7495785  )
        17           C   tau(  17) = (  0.7499676 -0.0013000  0.2500325  )
        18           C   tau(  18) = (  0.5056230  0.2503877  0.2503877  )
        19           C   tau(  19) = (  0.2518999  0.5015091  0.2526998  )
        20           C   tau(  20) = ( -0.0009678  0.7489279  0.2504044  )
        21           C   tau(  21) = (  0.7496124  0.2503877  0.4943771  )
        22           C   tau(  22) = (  0.2504215  0.7495784  0.4992391  )
        23           C   tau(  23) = ( -0.0000386  0.0000386  0.4999672  )
        24           C   tau(  24) = (  0.7473003  0.5015091  0.7481000  )
        25           C   tau(  25) = (  0.5007611  0.7495784  0.7495784  )
        26           C   tau(  26) = (  0.2501607  0.0001583  0.7498394  )
        27           C   tau(  27) = ( -0.0009678  0.2504043  0.7489279  )
        28           C   tau(  28) = (  0.7495957  0.7489279  0.0009678  )
        29           C   tau(  29) = (  0.5000328  0.0000386  0.0000386  )
        30           C   tau(  30) = (  0.2510721  0.2504043  0.0009678  )
        31           C   tau(  31) = ( -0.0000386  0.4999672  0.0000386  )
        32           C   tau(  32) = (  0.1259164  0.1252516  0.1252516  )
        33           C   tau(  33) = (  0.8764465  0.3747508  0.1235536  )
        34           C   tau(  34) = (  0.6237121  0.6228769  0.1272087  )
        35           C   tau(  35) = (  0.3756712  0.8756450  0.1247392  )
        36           C   tau(  36) = (  0.1261110  0.3755800  0.3755800  )
        37           C   tau(  37) = (  0.8727913  0.6228769  0.3762880  )
        38           C   tau(  38) = (  0.6244200  0.8738889  0.3755800  )
        39           C   tau(  39) = (  0.3771232  0.1272086  0.3762879  )
        40           C   tau(  40) = (  0.1251949  0.6249905  0.6249906  )
        41           C   tau(  41) = (  0.8752609  0.8756450  0.6243288  )
        42           C   tau(  42) = (  0.6237121  0.1272087  0.6228769  )
        43           C   tau(  43) = (  0.3661907  0.3696872  0.6338093  )
        44           C   tau(  44) = (  0.1251559  0.8748441  0.8748441  )
        45           C   tau(  45) = (  0.8747485  0.1252516  0.8740836  )
        46           C   tau(  46) = (  0.6244200  0.3755800  0.8738890  )
        47           C   tau(  47) = (  0.3750094  0.6249906  0.8748052  )
        48           C   tau(  48) = (  0.8764465  0.1235535  0.3747508  )
        49           C   tau(  49) = (  0.3661907  0.6338093  0.3696873  )
        50           C   tau(  50) = (  0.1239838  0.8760162  0.3759929  )
        51           C   tau(  51) = (  0.8727914  0.3762879  0.6228769  )
        52           C   tau(  52) = (  0.6303128  0.6338092  0.6338093  )
        53           C   tau(  53) = (  0.3750094  0.8748050  0.6249906  )
        54           C   tau(  54) = (  0.1243550  0.1247391  0.6243289  )
        55           C   tau(  55) = (  0.8752609  0.6243287  0.8756451  )
        56           C   tau(  56) = (  0.6240071  0.8760163  0.8760163  )
        57           C   tau(  57) = (  0.3756712  0.1247391  0.8756450  )
        58           C   tau(  58) = (  0.1239838  0.3759929  0.8760163  )
        59           C   tau(  59) = (  0.8747485  0.8740836  0.1252516  )
        60           C   tau(  60) = (  0.6252492  0.1235536  0.1235536  )
        61           C   tau(  61) = (  0.3771232  0.3762879  0.1272087  )
        62           C   tau(  62) = (  0.1243549  0.6243288  0.1247392  )
        63           N   tau(  63) = (  0.6362864  0.3637136  0.3637136  )

     number of k points=     4  Marzari-Vanderbilt smearing, width (Ry)=  0.0010
                       cart. coord. in units 2pi/alat
        k(    1) = (   0.0000000   0.0000000   0.0000000), wk =   0.1250000
        k(    2) = (   0.0000000   0.0000000  -0.5000000), wk =   0.3750000
        k(    3) = (   0.0000000  -0.5000000  -0.5000000), wk =   0.3750000
        k(    4) = (  -0.5000000  -0.5000000  -0.5000000), wk =   0.1250000

                       cryst. coord.
        k(    1) = (   0.0000000   0.0000000   0.0000000), wk =   0.1250000
        k(    2) = (   0.0000000   0.0000000  -0.5000000), wk =   0.3750000
        k(    3) = (   0.0000000  -0.5000000  -0.5000000), wk =   0.3750000
        k(    4) = (  -0.5000000  -0.5000000  -0.5000000), wk =   0.1250000

     Dense  grid:   331093 G-vectors     FFT dimensions: (  90,  90,  90)

     Dynamical RAM for                 wfc:       6.00 MB

     Dynamical RAM for     wfc (w. buffer):      54.02 MB

     Dynamical RAM for           str. fact:       0.63 MB

     Dynamical RAM for           local pot:       0.00 MB

     Dynamical RAM for          nlocal pot:      19.90 MB

     Dynamical RAM for                qrad:       0.92 MB

     Dynamical RAM for          rho,v,vnew:       4.12 MB

     Dynamical RAM for               rhoin:       1.37 MB

     Dynamical RAM for            rho*nmix:      10.10 MB

     Dynamical RAM for           G-vectors:       1.34 MB

     Dynamical RAM for          h,s,v(r/c):       1.06 MB

     Dynamical RAM for          <psi|beta>:       1.17 MB

     Dynamical RAM for                 psi:      12.00 MB

     Dynamical RAM for                hpsi:      12.00 MB

     Dynamical RAM for      wfcinit/wfcrot:      21.36 MB

     Estimated static dynamical RAM per process >      85.48 MB

     Estimated max dynamical RAM per process >     121.82 MB

     Estimated total dynamical RAM >       3.81 GB
     Generating pointlists ...
     new r_m :   0.0853 (alat units)  1.1503 (a.u.) for type    1
     new r_m :   0.0853 (alat units)  1.1503 (a.u.) for type    2

     Initial potential from superposition of free atoms

     starting charge     252.9972, renormalised to     254.0000
     Starting wfcs are  252 randomized atomic wfcs

     total cpu time spent up to now is        2.5 secs

     Self-consistent Calculation

     iteration #  1     ecut=   100.00 Ry     beta= 0.50
     Davidson diagonalization with overlap

---- Real-time Memory Report at c_bands before calling an iterative solver
           279 MiB given to the printing process from OS
             0 MiB allocation reported by mallinfo(arena+hblkhd)
        124775 MiB available memory on the node where the printing process lives
------------------
     ethr =  1.00E-02,  avg # of iterations =  3.0

     total cpu time spent up to now is        7.1 secs

     total energy              =    -724.04288036 Ry
     estimated scf accuracy    <       4.23952613 Ry

     total magnetization       =     1.35 Bohr mag/cell
     absolute magnetization    =     2.39 Bohr mag/cell

     iteration #  2     ecut=   100.00 Ry     beta= 0.50
     Davidson diagonalization with overlap

---- Real-time Memory Report at c_bands before calling an iterative solver
           329 MiB given to the printing process from OS
             0 MiB allocation reported by mallinfo(arena+hblkhd)
        124552 MiB available memory on the node where the printing process lives
------------------
     ethr =  1.67E-03,  avg # of iterations =  3.4

     total cpu time spent up to now is       10.7 secs

     WARNING: integrated charge=   254.00038252, expected=   254.00000000

     total energy              =    -724.41166558 Ry
     estimated scf accuracy    <       1.75553967 Ry

     total magnetization       =     0.50 Bohr mag/cell
     absolute magnetization    =     1.40 Bohr mag/cell

     iteration #  3     ecut=   100.00 Ry     beta= 0.50
     Davidson diagonalization with overlap

---- Real-time Memory Report at c_bands before calling an iterative solver
           342 MiB given to the printing process from OS
             0 MiB allocation reported by mallinfo(arena+hblkhd)
        124515 MiB available memory on the node where the printing process lives
------------------
     ethr =  6.91E-04,  avg # of iterations =  7.2

     total cpu time spent up to now is       15.3 secs

     WARNING: integrated charge=   254.00021581, expected=   254.00000000

     total energy              =    -724.73297578 Ry
     estimated scf accuracy    <       0.27561571 Ry

     total magnetization       =     0.50 Bohr mag/cell
     absolute magnetization    =     1.17 Bohr mag/cell

     iteration #  4     ecut=   100.00 Ry     beta= 0.50
     Davidson diagonalization with overlap

---- Real-time Memory Report at c_bands before calling an iterative solver
           360 MiB given to the printing process from OS
             0 MiB allocation reported by mallinfo(arena+hblkhd)
        124498 MiB available memory on the node where the printing process lives
------------------
     c_bands:  1 eigenvalues not converged
     ethr =  1.09E-04,  avg # of iterations = 12.0

     total cpu time spent up to now is       21.6 secs

     WARNING: integrated charge=   254.00015994, expected=   254.00000000

     total energy              =    -724.77935121 Ry
     estimated scf accuracy    <       0.06831765 Ry

     total magnetization       =     0.51 Bohr mag/cell
     absolute magnetization    =     0.88 Bohr mag/cell

     iteration #  5     ecut=   100.00 Ry     beta= 0.50
     Davidson diagonalization with overlap

---- Real-time Memory Report at c_bands before calling an iterative solver
           364 MiB given to the printing process from OS
             0 MiB allocation reported by mallinfo(arena+hblkhd)
        124460 MiB available memory on the node where the printing process lives
------------------
     ethr =  2.69E-05,  avg # of iterations =  7.8

     total cpu time spent up to now is       26.3 secs

     WARNING: integrated charge=   254.00008279, expected=   254.00000000

     total energy              =    -724.79281115 Ry
     estimated scf accuracy    <       0.01391114 Ry

     total magnetization       =     0.77 Bohr mag/cell
     absolute magnetization    =     1.04 Bohr mag/cell

     iteration #  6     ecut=   100.00 Ry     beta= 0.50
     Davidson diagonalization with overlap

---- Real-time Memory Report at c_bands before calling an iterative solver
           364 MiB given to the printing process from OS
             0 MiB allocation reported by mallinfo(arena+hblkhd)
        124416 MiB available memory on the node where the printing process lives
------------------
     c_bands:  1 eigenvalues not converged
     ethr =  5.48E-06,  avg # of iterations = 12.0

     total cpu time spent up to now is       32.6 secs

     WARNING: integrated charge=   254.00004385, expected=   254.00000000

     total energy              =    -724.80646487 Ry
     estimated scf accuracy    <       0.00547598 Ry

     total magnetization       =     1.54 Bohr mag/cell
     absolute magnetization    =     1.70 Bohr mag/cell

     iteration #  7     ecut=   100.00 Ry     beta= 0.50
     Davidson diagonalization with overlap

---- Real-time Memory Report at c_bands before calling an iterative solver
           364 MiB given to the printing process from OS
             0 MiB allocation reported by mallinfo(arena+hblkhd)
        124385 MiB available memory on the node where the printing process lives
------------------
     ethr =  2.16E-06,  avg # of iterations =  6.4

     total cpu time spent up to now is       36.7 secs

     WARNING: integrated charge=   254.00004282, expected=   254.00000000

     total energy              =    -724.81052468 Ry
     estimated scf accuracy    <       0.00500566 Ry

     total magnetization       =     2.00 Bohr mag/cell
     absolute magnetization    =     2.13 Bohr mag/cell

     iteration #  8     ecut=   100.00 Ry     beta= 0.50
     Davidson diagonalization with overlap

---- Real-time Memory Report at c_bands before calling an iterative solver
           364 MiB given to the printing process from OS
             0 MiB allocation reported by mallinfo(arena+hblkhd)
        124360 MiB available memory on the node where the printing process lives
------------------
     ethr =  1.97E-06,  avg # of iterations =  1.0

     total cpu time spent up to now is       39.4 secs

     total energy              =    -724.82407268 Ry
     estimated scf accuracy    <       0.00479816 Ry

     total magnetization       =     2.00 Bohr mag/cell
     absolute magnetization    =     2.13 Bohr mag/cell

     iteration #  9     ecut=   100.00 Ry     beta= 0.50
     Davidson diagonalization with overlap

---- Real-time Memory Report at c_bands before calling an iterative solver
           364 MiB given to the printing process from OS
             0 MiB allocation reported by mallinfo(arena+hblkhd)
        124340 MiB available memory on the node where the printing process lives
------------------
     c_bands:  1 eigenvalues not converged
     ethr =  1.89E-06,  avg # of iterations =  7.9

     total cpu time spent up to now is       44.9 secs

     total energy              =    -724.82695999 Ry
     estimated scf accuracy    <       0.00094505 Ry

     total magnetization       =     2.00 Bohr mag/cell
     absolute magnetization    =     2.19 Bohr mag/cell

     iteration # 10     ecut=   100.00 Ry     beta= 0.50
     Davidson diagonalization with overlap

---- Real-time Memory Report at c_bands before calling an iterative solver
           364 MiB given to the printing process from OS
             0 MiB allocation reported by mallinfo(arena+hblkhd)
        124311 MiB available memory on the node where the printing process lives
------------------
     ethr =  3.72E-07,  avg # of iterations =  5.0

     total cpu time spent up to now is       49.7 secs

     total energy              =    -724.82818574 Ry
     estimated scf accuracy    <       0.00064339 Ry

     total magnetization       =     2.00 Bohr mag/cell
     absolute magnetization    =     2.26 Bohr mag/cell

     iteration # 11     ecut=   100.00 Ry     beta= 0.50
     Davidson diagonalization with overlap

---- Real-time Memory Report at c_bands before calling an iterative solver
           365 MiB given to the printing process from OS
             0 MiB allocation reported by mallinfo(arena+hblkhd)
        124287 MiB available memory on the node where the printing process lives
------------------
     ethr =  2.53E-07,  avg # of iterations =  3.9

     total cpu time spent up to now is       53.4 secs

     total energy              =    -724.82840296 Ry
     estimated scf accuracy    <       0.00006553 Ry

     total magnetization       =     2.00 Bohr mag/cell
     absolute magnetization    =     2.25 Bohr mag/cell

     iteration # 12     ecut=   100.00 Ry     beta= 0.50
     Davidson diagonalization with overlap

---- Real-time Memory Report at c_bands before calling an iterative solver
           365 MiB given to the printing process from OS
             0 MiB allocation reported by mallinfo(arena+hblkhd)
        124282 MiB available memory on the node where the printing process lives
------------------
     ethr =  2.58E-08,  avg # of iterations =  4.8

     total cpu time spent up to now is       58.0 secs

     total energy              =    -724.82844473 Ry
     estimated scf accuracy    <       0.00000744 Ry

     total magnetization       =     2.00 Bohr mag/cell
     absolute magnetization    =     2.24 Bohr mag/cell

     iteration # 13     ecut=   100.00 Ry     beta= 0.50
     Davidson diagonalization with overlap

---- Real-time Memory Report at c_bands before calling an iterative solver
           365 MiB given to the printing process from OS
             0 MiB allocation reported by mallinfo(arena+hblkhd)
        124273 MiB available memory on the node where the printing process lives
------------------
     ethr =  2.93E-09,  avg # of iterations =  5.4

     total cpu time spent up to now is       63.0 secs

     total energy              =    -724.82845104 Ry
     estimated scf accuracy    <       0.00000068 Ry

     total magnetization       =     2.00 Bohr mag/cell
     absolute magnetization    =     2.23 Bohr mag/cell

     iteration # 14     ecut=   100.00 Ry     beta= 0.50
     Davidson diagonalization with overlap

---- Real-time Memory Report at c_bands before calling an iterative solver
           366 MiB given to the printing process from OS
             0 MiB allocation reported by mallinfo(arena+hblkhd)
        124272 MiB available memory on the node where the printing process lives
------------------
     ethr =  2.67E-10,  avg # of iterations =  4.4

     total cpu time spent up to now is       67.9 secs

     total energy              =    -724.82845184 Ry
     estimated scf accuracy    <       0.00000042 Ry

     total magnetization       =     2.00 Bohr mag/cell
     absolute magnetization    =     2.24 Bohr mag/cell

     iteration # 15     ecut=   100.00 Ry     beta= 0.50
     Davidson diagonalization with overlap

---- Real-time Memory Report at c_bands before calling an iterative solver
           366 MiB given to the printing process from OS
             0 MiB allocation reported by mallinfo(arena+hblkhd)
        124271 MiB available memory on the node where the printing process lives
------------------
     ethr =  1.64E-10,  avg # of iterations =  5.1

     total cpu time spent up to now is       72.7 secs

     total energy              =    -724.82845226 Ry
     estimated scf accuracy    <       0.00000004 Ry

     total magnetization       =     2.00 Bohr mag/cell
     absolute magnetization    =     2.24 Bohr mag/cell

     iteration # 16     ecut=   100.00 Ry     beta= 0.50
     Davidson diagonalization with overlap

---- Real-time Memory Report at c_bands before calling an iterative solver
           366 MiB given to the printing process from OS
             0 MiB allocation reported by mallinfo(arena+hblkhd)
        124264 MiB available memory on the node where the printing process lives
------------------
     ethr =  1.68E-11,  avg # of iterations =  4.2

     total cpu time spent up to now is       77.4 secs

     total energy              =    -724.82845229 Ry
     estimated scf accuracy    <          8.6E-09 Ry

     total magnetization       =     2.00 Bohr mag/cell
     absolute magnetization    =     2.24 Bohr mag/cell

     iteration # 17     ecut=   100.00 Ry     beta= 0.50
     Davidson diagonalization with overlap

---- Real-time Memory Report at c_bands before calling an iterative solver
           366 MiB given to the printing process from OS
             0 MiB allocation reported by mallinfo(arena+hblkhd)
        124255 MiB available memory on the node where the printing process lives
------------------
     ethr =  3.38E-12,  avg # of iterations =  3.8

     total cpu time spent up to now is       81.9 secs

     total energy              =    -724.82845230 Ry
     estimated scf accuracy    <          2.3E-09 Ry

     total magnetization       =     2.00 Bohr mag/cell
     absolute magnetization    =     2.24 Bohr mag/cell

     iteration # 18     ecut=   100.00 Ry     beta= 0.50
     Davidson diagonalization with overlap

---- Real-time Memory Report at c_bands before calling an iterative solver
           366 MiB given to the printing process from OS
             0 MiB allocation reported by mallinfo(arena+hblkhd)
        124247 MiB available memory on the node where the printing process lives
------------------
     ethr =  9.20E-13,  avg # of iterations =  5.0
 
     Magnetic moment per site  (integrated on atomic sphere of radius R)
     atom   1 (R=0.085)  charge=  1.8130  magn= -0.0002
     atom   2 (R=0.085)  charge=  1.8197  magn= -0.0010
     atom   3 (R=0.085)  charge=  1.8218  magn= -0.0014
     atom   4 (R=0.085)  charge=  1.8187  magn= -0.0015
     atom   5 (R=0.085)  charge=  1.8197  magn= -0.0010
     atom   6 (R=0.085)  charge=  1.7962  magn=  0.0010
     atom   7 (R=0.085)  charge=  1.8209  magn= -0.0033
     atom   8 (R=0.085)  charge=  1.8130  magn= -0.0015
     atom   9 (R=0.085)  charge=  1.8218  magn= -0.0014
     atom  10 (R=0.085)  charge=  1.8209  magn= -0.0033
     atom  11 (R=0.085)  charge=  1.8218  magn= -0.0014
     atom  12 (R=0.085)  charge=  1.8209  magn= -0.0033
     atom  13 (R=0.085)  charge=  1.8187  magn= -0.0015
     atom  14 (R=0.085)  charge=  1.8130  magn= -0.0015
     atom  15 (R=0.085)  charge=  1.8209  magn= -0.0033
     atom  16 (R=0.085)  charge=  1.8290  magn= -0.0079
     atom  17 (R=0.085)  charge=  1.8197  magn= -0.0010
     atom  18 (R=0.085)  charge=  1.7962  magn=  0.0010
     atom  19 (R=0.085)  charge=  1.8209  magn= -0.0033
     atom  20 (R=0.085)  charge=  1.8130  magn= -0.0015
     atom  21 (R=0.085)  charge=  1.7962  magn=  0.0010
     atom  22 (R=0.085)  charge=  1.8290  magn= -0.0079
     atom  23 (R=0.085)  charge=  1.8329  magn=  0.0075
     atom  24 (R=0.085)  charge=  1.8209  magn= -0.0033
     atom  25 (R=0.085)  charge=  1.8290  magn= -0.0079
     atom  26 (R=0.085)  charge=  1.8187  magn= -0.0015
     atom  27 (R=0.085)  charge=  1.8130  magn= -0.0015
     atom  28 (R=0.085)  charge=  1.8130  magn= -0.0015
     atom  29 (R=0.085)  charge=  1.8329  magn=  0.0075
     atom  30 (R=0.085)  charge=  1.8130  magn= -0.0015
     atom  31 (R=0.085)  charge=  1.8329  magn=  0.0075
     atom  32 (R=0.085)  charge=  1.8212  magn=  0.0029
     atom  33 (R=0.085)  charge=  1.8282  magn=  0.0017
     atom  34 (R=0.085)  charge=  1.8129  magn=  0.0052
     atom  35 (R=0.085)  charge=  1.8169  magn=  0.0190
     atom  36 (R=0.085)  charge=  1.8192  magn=  0.0063
     atom  37 (R=0.085)  charge=  1.8129  magn=  0.0052
     atom  38 (R=0.085)  charge=  1.8192  magn=  0.0063
     atom  39 (R=0.085)  charge=  1.8129  magn=  0.0052
     atom  40 (R=0.085)  charge=  1.8176  magn=  0.0076
     atom  41 (R=0.085)  charge=  1.8169  magn=  0.0190
     atom  42 (R=0.085)  charge=  1.8129  magn=  0.0052
     atom  43 (R=0.085)  charge=  1.8187  magn=  0.2519
     atom  44 (R=0.085)  charge=  1.8194  magn=  0.0035
     atom  45 (R=0.085)  charge=  1.8212  magn=  0.0029
     atom  46 (R=0.085)  charge=  1.8192  magn=  0.0063
     atom  47 (R=0.085)  charge=  1.8176  magn=  0.0076
     atom  48 (R=0.085)  charge=  1.8282  magn=  0.0017
     atom  49 (R=0.085)  charge=  1.8187  magn=  0.2519
     atom  50 (R=0.085)  charge=  1.8160  magn=  0.0169
     atom  51 (R=0.085)  charge=  1.8129  magn=  0.0052
     atom  52 (R=0.085)  charge=  1.8187  magn=  0.2519
     atom  53 (R=0.085)  charge=  1.8176  magn=  0.0076
     atom  54 (R=0.085)  charge=  1.8169  magn=  0.0190
     atom  55 (R=0.085)  charge=  1.8169  magn=  0.0190
     atom  56 (R=0.085)  charge=  1.8160  magn=  0.0169
     atom  57 (R=0.085)  charge=  1.8169  magn=  0.0190
     atom  58 (R=0.085)  charge=  1.8160  magn=  0.0169
     atom  59 (R=0.085)  charge=  1.8212  magn=  0.0029
     atom  60 (R=0.085)  charge=  1.8282  magn=  0.0017
     atom  61 (R=0.085)  charge=  1.8129  magn=  0.0052
     atom  62 (R=0.085)  charge=  1.8169  magn=  0.0190
     atom  63 (R=0.085)  charge=  2.9119  magn=  0.0022

     total cpu time spent up to now is       87.5 secs

     End of self-consistent calculation

 ------ SPIN UP ------------


          k = 0.0000 0.0000 0.0000 ( 41395 PWs)   bands (ev):

    -8.5723  -6.9981  -6.2799  -6.2799  -6.1717  -6.1717  -5.8936  -4.9477
    -4.1382  -4.1382  -4.1102  -4.1102  -4.0392  -4.0392  -4.0073  -3.9409
    -3.8827  -3.8827  -3.3746  -2.9717  -2.6913  -2.6913  -2.1309  -0.3862
    -0.3862  -0.3572  -0.3213  -0.1177   0.1637   0.1637   0.2661   0.2661
     0.3466   0.5792   0.8022   0.8022   0.9601   0.9601   0.9844   1.0114
     1.0114   1.0472   1.2719   1.2719   2.9947   3.8745   3.8745   4.0076
     4.2105   4.2111   4.2111   4.2131   4.2478   4.2478   4.3910   4.3910
     4.4602   4.4602   4.5747   4.6296   4.6348   4.6348   4.6377   4.7242
     4.7242   4.8617   4.9172   4.9172   5.0186   5.1935   5.1935   5.2617
     5.3207   5.3207   5.3607   5.3827   5.3827   5.9755   5.9756   6.0070
     6.5808   6.5808   6.6973   6.9583   6.9772   6.9772   7.4090   8.2778
     8.2778   8.3578   8.4365   8.4365   8.6113   8.6113   8.7721   8.7760
     8.7863   8.7863   8.8287   8.8287   8.8607   9.2250   9.2250   9.2335
     9.6629   9.6629   9.8682   9.8682   9.8698   9.8878   9.9133   9.9406
     9.9406   9.9453   9.9618   9.9618  10.0723  10.0723  10.1926  10.1926
    10.2643  10.7878  12.1223  12.3725  12.3725  13.6914  14.6922  14.6922
    17.3104  17.3250  17.3250  17.4966  17.5016  17.5016  17.8060  17.8702
    17.8702  17.9495  17.9495  18.2951  18.8555  18.8555  18.8963  20.6225
    20.7556  20.7557  20.8044  20.8852  20.8856  20.9666  20.9670  21.0106

     occupation numbers 
     1.0000   1.0000   1.0000   1.0000   1.0000   1.0000   1.0000   1.0000
     1.0000   1.0000   1.0000   1.0000   1.0000   1.0000   1.0000   1.0000
     1.0000   1.0000   1.0000   1.0000   1.0000   1.0000   1.0000   1.0000
     1.0000   1.0000   1.0000   1.0000   1.0000   1.0000   1.0000   1.0000
     1.0000   1.0000   1.0000   1.0000   1.0000   1.0000   1.0000   1.0000
     1.0000   1.0000   1.0000   1.0000   1.0000   1.0000   1.0000   1.0000
     1.0000   1.0000   1.0000   1.0000   1.0000   1.0000   1.0000   1.0000
     1.0000   1.0000   1.0000   1.0000   1.0000   1.0000   1.0000   1.0000
     1.0000   1.0000   1.0000   1.0000   1.0000   1.0000   1.0000   1.0000
     1.0000   1.0000   1.0000   1.0000   1.0000   1.0000   1.0000   1.0000
     1.0000   1.0000   1.0000   1.0000   1.0000   1.0000   1.0000   1.0000
     1.0000   1.0000   1.0000   1.0000   1.0000   1.0000   1.0000   1.0000
     1.0000   1.0000   1.0000   1.0000   1.0000   1.0000   1.0000   1.0000
     1.0000   1.0000   1.0000   1.0000   1.0000   1.0000   1.0000   1.0000
     1.0000   1.0000   1.0000   1.0000   1.0000   1.0000   1.0000   1.0000
     1.0000   1.0000   1.0000   1.0000   1.0000   1.0000   1.0000   1.0000
     0.0000   0.0000   0.0000   0.0000   0.0000   0.0000   0.0000   0.0000
     0.0000   0.0000   0.0000   0.0000   0.0000   0.0000   0.0000   0.0000
     0.0000   0.0000   0.0000   0.0000   0.0000   0.0000   0.0000   0.0000

          k = 0.0000 0.0000-0.5000 ( 41426 PWs)   bands (ev):

    -8.1645  -7.8560  -6.5531  -5.7758  -5.6989  -5.6813  -5.6734  -5.6503
    -5.5268  -5.1883  -4.2395  -3.6658  -3.6468  -3.6116  -3.5828  -3.5144
    -3.4410  -3.3871  -3.3807  -2.8033  -1.9744  -1.6266  -1.6130  -1.5899
    -1.5364  -1.4605  -1.3916  -0.7886   0.2742   0.3709   0.4362   0.4607
     0.5263   0.6021   0.7263   1.0033   1.2243   1.3336   1.3423   1.3891
     1.5442   1.6339   1.6473   1.9672   2.3775   2.4182   2.4533   2.5479
     2.5666   2.7549   2.7701   3.7954   3.8991   3.9917   4.0582   4.0785
     4.1219   4.1904   4.3928   4.4193   4.4959   5.3144   5.4881   5.5519
     5.5548   5.5882   5.7048   5.7390   5.8042   5.8537   6.2718   6.2867
     6.4150   6.4187   6.4426   6.5831   6.6913   6.9597   7.0836   7.1133
     7.1701   7.1985   7.2882   7.3443   7.3980   7.4019   7.4056   7.4326
     7.4331   7.4510   7.4795   7.5190   7.5308   7.5544   7.8598   8.0082
     8.0356   8.0538   8.2105   8.2702   8.3244   8.3643   8.7808   8.9438
     9.3614   9.6663   9.6888   9.8675   9.9114   9.9419   9.9564   9.9662
    10.0063  10.0078  10.0197  10.0309  10.0823  10.2468  10.7919  10.8991
    10.9103  11.0961  11.1043  11.1731  11.8959  13.2110  14.2627  14.4741
    17.1396  17.2492  18.0557  18.5116  19.2067  19.3250  19.4500  19.4640
    19.4894  19.5215  19.6315  19.6523  19.7118  19.7421  19.8291  19.8944
    19.9051  19.9719  20.0050  20.1213  20.1368  20.2697  20.6573  20.7294

     occupation numbers 
     1.0000   1.0000   1.0000   1.0000   1.0000   1.0000   1.0000   1.0000
     1.0000   1.0000   1.0000   1.0000   1.0000   1.0000   1.0000   1.0000
     1.0000   1.0000   1.0000   1.0000   1.0000   1.0000   1.0000   1.0000
     1.0000   1.0000   1.0000   1.0000   1.0000   1.0000   1.0000   1.0000
     1.0000   1.0000   1.0000   1.0000   1.0000   1.0000   1.0000   1.0000
     1.0000   1.0000   1.0000   1.0000   1.0000   1.0000   1.0000   1.0000
     1.0000   1.0000   1.0000   1.0000   1.0000   1.0000   1.0000   1.0000
     1.0000   1.0000   1.0000   1.0000   1.0000   1.0000   1.0000   1.0000
     1.0000   1.0000   1.0000   1.0000   1.0000   1.0000   1.0000   1.0000
     1.0000   1.0000   1.0000   1.0000   1.0000   1.0000   1.0000   1.0000
     1.0000   1.0000   1.0000   1.0000   1.0000   1.0000   1.0000   1.0000
     1.0000   1.0000   1.0000   1.0000   1.0000   1.0000   1.0000   1.0000
     1.0000   1.0000   1.0000   1.0000   1.0000   1.0000   1.0000   1.0000
     1.0000   1.0000   1.0000   1.0000   1.0000   1.0000   1.0000   1.0000
     1.0000   1.0000   1.0000   1.0000   1.0000   1.0000   1.0000   1.0000
     1.0000   1.0000   1.0000   1.0000   1.0000   1.0000   1.0000   1.0000
     0.0000   0.0000   0.0000   0.0000   0.0000   0.0000   0.0000   0.0000
     0.0000   0.0000   0.0000   0.0000   0.0000   0.0000   0.0000   0.0000
     0.0000   0.0000   0.0000   0.0000   0.0000   0.0000   0.0000   0.0000

          k = 0.0000-0.5000-0.5000 ( 41364 PWs)   bands (ev):

    -7.8440  -7.4151  -7.3576  -7.1146  -5.8882  -5.2226  -5.1880  -5.1368
    -5.1364  -5.1123  -4.9858  -4.5451  -3.4915  -3.0709  -3.0227  -2.9871
    -2.9403  -2.9264  -2.7659  -2.5143  -2.1393  -1.8324  -1.8053  -1.7376
    -1.7024  -1.6852  -1.5753  -0.9045  -0.2286  -0.0432  -0.0159   0.2009
     0.4599   0.5056   0.5796   0.5927   0.7180   0.7909   0.8839   0.9558
     1.1188   1.2610   1.4138   2.4361   3.4499   3.4594   3.4829   3.6536
     3.6579   3.6813   3.7730   3.8082   3.8260   3.8528   3.8754   3.8981
     3.9075   3.9149   3.9365   3.9538   4.1649   4.4177   4.4982   5.5258
     5.7459   5.8306   5.8915   5.9367   5.9810   6.0898   6.2100   6.3092
     6.3818   6.5060   6.5860   6.6016   6.6438   6.7070   6.7122   6.8694
     6.9299   7.0062   7.0105   7.0668   7.2529   7.2986   7.3266   7.4636
     7.5817   7.7540   7.8199   8.0367   8.1847   8.2193   8.2255   8.3543
     8.3867   8.4282   8.5767   8.5979   8.9291   8.9676   9.0198   9.2260
     9.2599   9.3383   9.3701   9.3847   9.4105   9.4791   9.4946   9.5770
     9.6475   9.6557   9.6789   9.6813   9.6964   9.7209   9.7389   9.7516
    11.2250  11.4165  11.5445  12.0861  12.1479  13.1962  14.2630  14.5699
    18.4208  18.6248  18.7510  18.9081  19.0254  19.1783  19.2270  19.2483
    19.3020  19.3786  19.4031  19.5425  19.6149  19.6911  19.6997  19.8511
    19.8653  19.8972  19.9373  19.9497  20.1436  20.1490  20.3912  20.5141

     occupation numbers 
     1.0000   1.0000   1.0000   1.0000   1.0000   1.0000   1.0000   1.0000
     1.0000   1.0000   1.0000   1.0000   1.0000   1.0000   1.0000   1.0000
     1.0000   1.0000   1.0000   1.0000   1.0000   1.0000   1.0000   1.0000
     1.0000   1.0000   1.0000   1.0000   1.0000   1.0000   1.0000   1.0000
     1.0000   1.0000   1.0000   1.0000   1.0000   1.0000   1.0000   1.0000
     1.0000   1.0000   1.0000   1.0000   1.0000   1.0000   1.0000   1.0000
     1.0000   1.0000   1.0000   1.0000   1.0000   1.0000   1.0000   1.0000
     1.0000   1.0000   1.0000   1.0000   1.0000   1.0000   1.0000   1.0000
     1.0000   1.0000   1.0000   1.0000   1.0000   1.0000   1.0000   1.0000
     1.0000   1.0000   1.0000   1.0000   1.0000   1.0000   1.0000   1.0000
     1.0000   1.0000   1.0000   1.0000   1.0000   1.0000   1.0000   1.0000
     1.0000   1.0000   1.0000   1.0000   1.0000   1.0000   1.0000   1.0000
     1.0000   1.0000   1.0000   1.0000   1.0000   1.0000   1.0000   1.0000
     1.0000   1.0000   1.0000   1.0000   1.0000   1.0000   1.0000   1.0000
     1.0000   1.0000   1.0000   1.0000   1.0000   1.0000   1.0000   1.0000
     1.0000   1.0000   1.0000   1.0000   1.0000   1.0000   1.0000   1.0000
     0.0000   0.0000   0.0000   0.0000   0.0000   0.0000   0.0000   0.0000
     0.0000   0.0000   0.0000   0.0000   0.0000   0.0000   0.0000   0.0000
     0.0000   0.0000   0.0000   0.0000   0.0000   0.0000   0.0000   0.0000

          k =-0.5000-0.5000-0.5000 ( 41328 PWs)   bands (ev):

    -7.6268  -6.8890  -6.8532  -6.8532  -6.7856  -6.7272  -6.7272  -6.1856
    -4.0302  -2.7464  -2.7464  -2.6028  -2.6028  -2.5967  -2.5904  -2.5904
    -2.5721  -2.5363  -2.5363  -2.5308  -2.5050  -2.4979  -2.4979  -2.4267
    -2.4267  -2.3987  -2.3793  -2.3793  -2.3392  -2.0592  -2.0592  -0.1403
     1.6312   1.8218   1.8218   2.0618   2.0918   2.0934   2.0934   2.1018
     2.1178   2.1178   2.1415   2.1489   2.1489   2.1670   2.1670   2.2006
     2.2006   2.2144   2.2485   2.2485   2.6555   2.8974   2.8974   4.6070
     5.6425   5.6425   5.8127   6.0785   6.1062   6.1062   6.1335   6.1335
     6.1342   6.1348   6.1737   6.1738   6.1768   6.1934   6.1934   6.2132
     6.2132   6.2359   6.2516   6.2516   6.2555   6.2651   6.3023   6.3556
     6.3556   6.4043   6.4995   6.4995   6.9407   6.9519   6.9519   7.6264
     7.6264   7.9406   7.9406   7.9563   7.9677   7.9677   7.9981   8.0010
     8.0150   8.0267   8.0267   8.0453   8.0571   8.0571   8.1001   8.1001
     8.1492   8.1971   8.1971   8.3180   9.5721   9.7663   9.7663  10.6465
    10.8923  10.8923  11.1118  11.1118  11.1422  11.1422  11.1455  11.1685
    11.1685  11.1797  11.2065  11.2065  11.2146  13.4068  14.5732  14.5732
    18.3232  18.8281  18.8281  18.9380  18.9380  18.9495  18.9523  18.9585
    18.9585  18.9915  18.9915  19.0310  19.0336  19.0441  19.0441  19.1296
    19.1651  19.1651  19.4977  19.4977  19.5194  19.6509  19.6509  19.9147

     occupation numbers 
     1.0000   1.0000   1.0000   1.0000   1.0000   1.0000   1.0000   1.0000
     1.0000   1.0000   1.0000   1.0000   1.0000   1.0000   1.0000   1.0000
     1.0000   1.0000   1.0000   1.0000   1.0000   1.0000   1.0000   1.0000
     1.0000   1.0000   1.0000   1.0000   1.0000   1.0000   1.0000   1.0000
     1.0000   1.0000   1.0000   1.0000   1.0000   1.0000   1.0000   1.0000
     1.0000   1.0000   1.0000   1.0000   1.0000   1.0000   1.0000   1.0000
     1.0000   1.0000   1.0000   1.0000   1.0000   1.0000   1.0000   1.0000
     1.0000   1.0000   1.0000   1.0000   1.0000   1.0000   1.0000   1.0000
     1.0000   1.0000   1.0000   1.0000   1.0000   1.0000   1.0000   1.0000
     1.0000   1.0000   1.0000   1.0000   1.0000   1.0000   1.0000   1.0000
     1.0000   1.0000   1.0000   1.0000   1.0000   1.0000   1.0000   1.0000
     1.0000   1.0000   1.0000   1.0000   1.0000   1.0000   1.0000   1.0000
     1.0000   1.0000   1.0000   1.0000   1.0000   1.0000   1.0000   1.0000
     1.0000   1.0000   1.0000   1.0000   1.0000   1.0000   1.0000   1.0000
     1.0000   1.0000   1.0000   1.0000   1.0000   1.0000   1.0000   1.0000
     1.0000   1.0000   1.0000   1.0000   1.0000   1.0000   1.0000   1.0000
     0.0000   0.0000   0.0000   0.0000   0.0000   0.0000   0.0000   0.0000
     0.0000   0.0000   0.0000   0.0000   0.0000   0.0000   0.0000   0.0000
     0.0000   0.0000   0.0000   0.0000   0.0000   0.0000   0.0000   0.0000

 ------ SPIN DOWN ----------


          k = 0.0000 0.0000 0.0000 ( 41395 PWs)   bands (ev):

    -8.5494  -6.9843  -6.2620  -6.2620  -6.1319  -6.1319  -5.8573  -4.9314
    -4.1194  -4.1194  -4.0972  -4.0972  -3.9903  -3.9903  -3.9838  -3.9292
    -3.8320  -3.8320  -3.3307  -2.9553  -2.6388  -2.6388  -1.9929  -0.3693
    -0.3693  -0.3365  -0.3004  -0.0546   0.1797   0.1797   0.3016   0.3016
     0.3689   0.6120   0.8139   0.8139   0.9816   0.9816   1.0140   1.0250
     1.0250   1.0649   1.4402   1.4402   3.1101   3.8936   3.8936   4.0309
     4.2349   4.2402   4.2402   4.2433   4.2706   4.2706   4.4428   4.4428
     4.4769   4.4769   4.5997   4.6507   4.6516   4.6527   4.6527   4.7614
     4.7614   4.8739   4.9480   4.9480   5.1049   5.2258   5.2258   5.2863
     5.3316   5.3316   5.3716   5.4393   5.4393   6.0329   6.0329   6.0475
     6.6048   6.6048   6.7299   7.0003   7.0717   7.0717   7.5934   8.3111
     8.3111   8.3932   8.4688   8.4688   8.6407   8.6407   8.7995   8.7995
     8.8034   8.8252   8.8787   8.8806   8.8806   9.2606   9.2606   9.2614
     9.6945   9.6945   9.8813   9.8813   9.8815   9.9065   9.9478   9.9563
     9.9564   9.9583   9.9922   9.9922  10.1058  10.1058  10.2457  10.2457
    10.3180  11.2263  12.4228  12.5207  12.5207  14.1700  16.1036  16.1036
    17.3400  17.3435  17.3435  17.5191  17.5543  17.5543  17.8316  17.8954
    17.8954  17.9856  17.9856  18.4036  18.9395  18.9423  18.9423  20.6726
    20.7700  20.7700  20.8166  20.9029  20.9030  20.9885  20.9889  21.0160

     occupation numbers 
     1.0000   1.0000   1.0000   1.0000   1.0000   1.0000   1.0000   1.0000
     1.0000   1.0000   1.0000   1.0000   1.0000   1.0000   1.0000   1.0000
     1.0000   1.0000   1.0000   1.0000   1.0000   1.0000   1.0000   1.0000
     1.0000   1.0000   1.0000   1.0000   1.0000   1.0000   1.0000   1.0000
     1.0000   1.0000   1.0000   1.0000   1.0000   1.0000   1.0000   1.0000
     1.0000   1.0000   1.0000   1.0000   1.0000   1.0000   1.0000   1.0000
     1.0000   1.0000   1.0000   1.0000   1.0000   1.0000   1.0000   1.0000
     1.0000   1.0000   1.0000   1.0000   1.0000   1.0000   1.0000   1.0000
     1.0000   1.0000   1.0000   1.0000   1.0000   1.0000   1.0000   1.0000
     1.0000   1.0000   1.0000   1.0000   1.0000   1.0000   1.0000   1.0000
     1.0000   1.0000   1.0000   1.0000   1.0000   1.0000   1.0000   1.0000
     1.0000   1.0000   1.0000   1.0000   1.0000   1.0000   1.0000   1.0000
     1.0000   1.0000   1.0000   1.0000   1.0000   1.0000   1.0000   1.0000
     1.0000   1.0000   1.0000   1.0000   1.0000   1.0000   1.0000   1.0000
     1.0000   1.0000   1.0000   1.0000   1.0000   1.0000   1.0000   1.0000
     1.0000   1.0000   1.0000   1.0000   1.0000   1.0000   0.0000   0.0000
     0.0000   0.0000   0.0000   0.0000   0.0000   0.0000   0.0000   0.0000
     0.0000   0.0000   0.0000   0.0000   0.0000   0.0000   0.0000   0.0000
     0.0000   0.0000   0.0000   0.0000   0.0000   0.0000   0.0000   0.0000

          k = 0.0000 0.0000-0.5000 ( 41426 PWs)   bands (ev):

    -8.1494  -7.8243  -6.5300  -5.7586  -5.6773  -5.6618  -5.6562  -5.6375
    -5.4625  -5.1304  -4.2079  -3.6476  -3.6321  -3.5935  -3.5503  -3.4948
    -3.4079  -3.3392  -3.3206  -2.7307  -1.9484  -1.6068  -1.5983  -1.5717
    -1.5011  -1.4064  -1.3110  -0.6906   0.3296   0.3794   0.4453   0.4791
     0.5487   0.6226   0.8123   1.0427   1.2557   1.3546   1.3686   1.4256
     1.5724   1.6724   1.7026   2.0141   2.4079   2.4393   2.4823   2.5707
     2.5833   2.8568   2.8769   3.8420   3.9135   4.0051   4.0738   4.1022
     4.1708   4.2262   4.4300   4.4765   4.5539   5.3861   5.5076   5.5657
     5.5810   5.6083   5.7609   5.7720   5.8437   5.9009   6.2993   6.3211
     6.4304   6.4626   6.4756   6.6427   6.7505   6.9789   7.0983   7.1539
     7.2178   7.2199   7.3153   7.3678   7.4157   7.4196   7.4269   7.4482
     7.4642   7.4652   7.4968   7.5695   7.5805   7.6058   7.8944   8.0483
     8.1002   8.1113   8.2435   8.3059   8.3610   8.4039   8.8393   9.0457
     9.4208   9.7149   9.7778   9.9153   9.9220   9.9565   9.9723   9.9831
    10.0178  10.0364  10.0549  10.0782  10.1183  10.3093  10.8198  10.9624
    11.0241  11.1482  11.2250  11.2751  12.1014  13.9233  15.6905  15.9522
    17.1697  17.2813  18.0816  18.5522  19.2277  19.3374  19.4665  19.4836
    19.5078  19.5681  19.6568  19.6764  19.7291  19.7711  19.8743  19.9178
    19.9675  20.0180  20.0734  20.1468  20.1716  20.3427  20.7038  20.7632

     occupation numbers 
     1.0000   1.0000   1.0000   1.0000   1.0000   1.0000   1.0000   1.0000
     1.0000   1.0000   1.0000   1.0000   1.0000   1.0000   1.0000   1.0000
     1.0000   1.0000   1.0000   1.0000   1.0000   1.0000   1.0000   1.0000
     1.0000   1.0000   1.0000   1.0000   1.0000   1.0000   1.0000   1.0000
     1.0000   1.0000   1.0000   1.0000   1.0000   1.0000   1.0000   1.0000
     1.0000   1.0000   1.0000   1.0000   1.0000   1.0000   1.0000   1.0000
     1.0000   1.0000   1.0000   1.0000   1.0000   1.0000   1.0000   1.0000
     1.0000   1.0000   1.0000   1.0000   1.0000   1.0000   1.0000   1.0000
     1.0000   1.0000   1.0000   1.0000   1.0000   1.0000   1.0000   1.0000
     1.0000   1.0000   1.0000   1.0000   1.0000   1.0000   1.0000   1.0000
     1.0000   1.0000   1.0000   1.0000   1.0000   1.0000   1.0000   1.0000
     1.0000   1.0000   1.0000   1.0000   1.0000   1.0000   1.0000   1.0000
     1.0000   1.0000   1.0000   1.0000   1.0000   1.0000   1.0000   1.0000
     1.0000   1.0000   1.0000   1.0000   1.0000   1.0000   1.0000   1.0000
     1.0000   1.0000   1.0000   1.0000   1.0000   1.0000   1.0000   1.0000
     1.0000   1.0000   1.0000   1.0000   1.0000   1.0000   0.0000   0.0000
     0.0000   0.0000   0.0000   0.0000   0.0000   0.0000   0.0000   0.0000
     0.0000   0.0000   0.0000   0.0000   0.0000   0.0000   0.0000   0.0000
     0.0000   0.0000   0.0000   0.0000   0.0000   0.0000   0.0000   0.0000

          k = 0.0000-0.5000-0.5000 ( 41364 PWs)   bands (ev):

    -7.8340  -7.3966  -7.3281  -7.0705  -5.8657  -5.2093  -5.1733  -5.1159
    -5.1023  -5.0863  -4.9271  -4.4786  -3.4544  -3.0577  -3.0069  -2.9746
    -2.8943  -2.8892  -2.7098  -2.4883  -2.1227  -1.8169  -1.7877  -1.7254
    -1.6707  -1.6426  -1.4622  -0.7979  -0.1925  -0.0099   0.0125   0.2652
     0.4753   0.5327   0.6122   0.6147   0.7448   0.8126   0.9224   0.9877
     1.1380   1.3122   1.5126   2.5518   3.4792   3.4844   3.5037   3.6759
     3.6857   3.6972   3.7924   3.8428   3.8637   3.8806   3.9033   3.9243
     3.9292   3.9543   3.9559   3.9789   4.2042   4.5242   4.6160   5.5828
     5.7799   5.8504   5.9051   5.9631   6.0053   6.1191   6.2579   6.3905
     6.4180   6.5255   6.6135   6.6234   6.6839   6.7224   6.7275   6.8928
     6.9540   7.0318   7.0409   7.0942   7.2878   7.3370   7.3650   7.4789
     7.6107   7.8010   7.8854   8.0645   8.2006   8.2384   8.2471   8.4313
     8.4489   8.4880   8.6474   8.6486   8.9630   9.0188   9.0585   9.2544
     9.3169   9.3514   9.3928   9.4153   9.4593   9.5070   9.5306   9.5952
     9.6863   9.7054   9.7163   9.7251   9.7317   9.7571   9.7815   9.7967
    11.2837  11.5556  11.9984  12.1108  12.1723  13.9284  15.6724  15.9874
    18.4387  18.6516  18.7758  18.9283  19.0655  19.2158  19.2519  19.2717
    19.3310  19.4213  19.4234  19.5859  19.6351  19.7081  19.7262  19.8693
    19.8890  19.9132  19.9652  19.9767  20.1808  20.2061  20.4326  20.5497

     occupation numbers 
     1.0000   1.0000   1.0000   1.0000   1.0000   1.0000   1.0000   1.0000
     1.0000   1.0000   1.0000   1.0000   1.0000   1.0000   1.0000   1.0000
     1.0000   1.0000   1.0000   1.0000   1.0000   1.0000   1.0000   1.0000
     1.0000   1.0000   1.0000   1.0000   1.0000   1.0000   1.0000   1.0000
     1.0000   1.0000   1.0000   1.0000   1.0000   1.0000   1.0000   1.0000
     1.0000   1.0000   1.0000   1.0000   1.0000   1.0000   1.0000   1.0000
     1.0000   1.0000   1.0000   1.0000   1.0000   1.0000   1.0000   1.0000
     1.0000   1.0000   1.0000   1.0000   1.0000   1.0000   1.0000   1.0000
     1.0000   1.0000   1.0000   1.0000   1.0000   1.0000   1.0000   1.0000
     1.0000   1.0000   1.0000   1.0000   1.0000   1.0000   1.0000   1.0000
     1.0000   1.0000   1.0000   1.0000   1.0000   1.0000   1.0000   1.0000
     1.0000   1.0000   1.0000   1.0000   1.0000   1.0000   1.0000   1.0000
     1.0000   1.0000   1.0000   1.0000   1.0000   1.0000   1.0000   1.0000
     1.0000   1.0000   1.0000   1.0000   1.0000   1.0000   1.0000   1.0000
     1.0000   1.0000   1.0000   1.0000   1.0000   1.0000   1.0000   1.0000
     1.0000   1.0000   1.0000   1.0000   1.0000   1.0000   0.0000   0.0000
     0.0000   0.0000   0.0000   0.0000   0.0000   0.0000   0.0000   0.0000
     0.0000   0.0000   0.0000   0.0000   0.0000   0.0000   0.0000   0.0000
     0.0000   0.0000   0.0000   0.0000   0.0000   0.0000   0.0000   0.0000

          k =-0.5000-0.5000-0.5000 ( 41328 PWs)   bands (ev):

    -7.6188  -6.8812  -6.8337  -6.8337  -6.7677  -6.6861  -6.6861  -6.1062
    -3.9825  -2.7362  -2.7362  -2.5812  -2.5810  -2.5810  -2.5642  -2.5642
    -2.5540  -2.5183  -2.5183  -2.5159  -2.4912  -2.4867  -2.4867  -2.4073
    -2.4073  -2.3641  -2.3506  -2.3506  -2.3253  -1.8920  -1.8920   0.0329
     1.6630   1.8352   1.8352   2.1064   2.1085   2.1148   2.1148   2.1345
     2.1374   2.1374   2.1585   2.1585   2.1683   2.1950   2.1950   2.2244
     2.2244   2.2453   2.2931   2.2931   2.6985   3.0343   3.0343   4.7674
     5.6677   5.6677   5.8313   6.0974   6.1165   6.1165   6.1451   6.1451
     6.1490   6.1618   6.1933   6.1933   6.2014   6.2162   6.2162   6.2468
     6.2618   6.2618   6.2826   6.2843   6.2843   6.3078   6.3405   6.3695
     6.3695   6.4428   6.5712   6.5712   6.9845   7.0189   7.0189   7.6479
     7.6479   7.9607   7.9607   7.9706   7.9829   7.9829   8.0120   8.0236
     8.0481   8.0534   8.0534   8.0564   8.0701   8.0701   8.1416   8.1416
     8.1605   8.2542   8.2542   8.3969   9.6188   9.9469   9.9469  10.9198
    10.9198  11.1159  11.1365  11.1365  11.1626  11.1626  11.1983  11.2096
    11.2096  11.2324  11.2324  11.2501  11.3905  14.0173  16.0548  16.0548
    18.3394  18.8392  18.8392  18.9508  18.9508  18.9567  18.9739  18.9762
    18.9762  19.0125  19.0125  19.0396  19.0493  19.0682  19.0682  19.1554
    19.2319  19.2319  19.5405  19.5405  19.5445  19.6918  19.6918  19.9869

     occupation numbers 
     1.0000   1.0000   1.0000   1.0000   1.0000   1.0000   1.0000   1.0000
     1.0000   1.0000   1.0000   1.0000   1.0000   1.0000   1.0000   1.0000
     1.0000   1.0000   1.0000   1.0000   1.0000   1.0000   1.0000   1.0000
     1.0000   1.0000   1.0000   1.0000   1.0000   1.0000   1.0000   1.0000
     1.0000   1.0000   1.0000   1.0000   1.0000   1.0000   1.0000   1.0000
     1.0000   1.0000   1.0000   1.0000   1.0000   1.0000   1.0000   1.0000
     1.0000   1.0000   1.0000   1.0000   1.0000   1.0000   1.0000   1.0000
     1.0000   1.0000   1.0000   1.0000   1.0000   1.0000   1.0000   1.0000
     1.0000   1.0000   1.0000   1.0000   1.0000   1.0000   1.0000   1.0000
     1.0000   1.0000   1.0000   1.0000   1.0000   1.0000   1.0000   1.0000
     1.0000   1.0000   1.0000   1.0000   1.0000   1.0000   1.0000   1.0000
     1.0000   1.0000   1.0000   1.0000   1.0000   1.0000   1.0000   1.0000
     1.0000   1.0000   1.0000   1.0000   1.0000   1.0000   1.0000   1.0000
     1.0000   1.0000   1.0000   1.0000   1.0000   1.0000   1.0000   1.0000
     1.0000   1.0000   1.0000   1.0000   1.0000   1.0000   1.0000   1.0000
     1.0000   1.0000   1.0000   1.0000   1.0000   1.0000   0.0000   0.0000
     0.0000   0.0000   0.0000   0.0000   0.0000   0.0000   0.0000   0.0000
     0.0000   0.0000   0.0000   0.0000   0.0000   0.0000   0.0000   0.0000
     0.0000   0.0000   0.0000   0.0000   0.0000   0.0000   0.0000   0.0000

     the Fermi energy is    15.5532 ev

!    total energy              =    -724.82845230 Ry
     estimated scf accuracy    <          3.0E-10 Ry
     smearing contrib. (-TS)   =      -0.00000000 Ry
     internal energy E=F+TS    =    -724.82845230 Ry

     The total energy is F=E-TS. E is the sum of the following terms:
     one-electron contribution =     233.09906341 Ry
     hartree contribution      =      69.11023525 Ry
     xc contribution           =    -226.41716396 Ry
     ewald contribution        =    -800.62058700 Ry

     total magnetization       =     2.00 Bohr mag/cell
     absolute magnetization    =     2.24 Bohr mag/cell

     convergence has been achieved in  18 iterations

     Forces acting on atoms (cartesian axes, Ry/au):

     atom    1 type  1   force =    -0.00004536    0.00004536    0.00004536
     atom    2 type  1   force =     0.00036243   -0.00036243    0.00042344
     atom    3 type  1   force =    -0.00002128    0.00002128    0.00009178
     atom    4 type  1   force =    -0.00031341    0.00031341    0.00040388
     atom    5 type  1   force =    -0.00042344   -0.00036243   -0.00036243
     atom    6 type  1   force =     0.00017536   -0.00042498   -0.00017536
     atom    7 type  1   force =     0.00017098   -0.00012495    0.00011585
     atom    8 type  1   force =    -0.00039362   -0.00054154   -0.00014807
     atom    9 type  1   force =    -0.00009178    0.00002128    0.00002128
     atom   10 type  1   force =    -0.00011585   -0.00012495   -0.00017098
     atom   11 type  1   force =    -0.00002128    0.00009178    0.00002128
     atom   12 type  1   force =     0.00012495    0.00011585   -0.00017098
     atom   13 type  1   force =    -0.00040388    0.00031341    0.00031341
     atom   14 type  1   force =     0.00014807   -0.00054154    0.00039362
     atom   15 type  1   force =     0.00017098    0.00011585   -0.00012495
     atom   16 type  1   force =    -0.00043161    0.00082890    0.00043161
     atom   17 type  1   force =     0.00036243    0.00042344   -0.00036243
     atom   18 type  1   force =     0.00042498   -0.00017536   -0.00017536
     atom   19 type  1   force =     0.00012495   -0.00017098    0.00011585
     atom   20 type  1   force =     0.00054154    0.00039362   -0.00014807
     atom   21 type  1   force =     0.00017536   -0.00017536   -0.00042498
     atom   22 type  1   force =    -0.00043161    0.00043161    0.00082890
     atom   23 type  1   force =    -0.00001001    0.00001001   -0.00010617
     atom   24 type  1   force =    -0.00011585   -0.00017098   -0.00012495
     atom   25 type  1   force =    -0.00082890    0.00043161    0.00043161
     atom   26 type  1   force =    -0.00031341    0.00040388    0.00031341
     atom   27 type  1   force =     0.00054154   -0.00014807    0.00039362
     atom   28 type  1   force =     0.00014807    0.00039362   -0.00054154
     atom   29 type  1   force =     0.00010617    0.00001001    0.00001001
     atom   30 type  1   force =    -0.00039362   -0.00014807   -0.00054154
     atom   31 type  1   force =    -0.00001001   -0.00010617    0.00001001
     atom   32 type  1   force =    -0.00034865   -0.00046125   -0.00046125
     atom   33 type  1   force =    -0.00019345   -0.00039797    0.00019345
     atom   34 type  1   force =     0.00010573   -0.00010675    0.00009589
     atom   35 type  1   force =    -0.00035065   -0.00069609    0.00061091
     atom   36 type  1   force =    -0.00032378   -0.00031014   -0.00031014
     atom   37 type  1   force =    -0.00009589   -0.00010675   -0.00010573
     atom   38 type  1   force =     0.00031014    0.00032378   -0.00031014
     atom   39 type  1   force =     0.00010675    0.00009589   -0.00010573
     atom   40 type  1   force =    -0.00016844    0.00046557    0.00046557
     atom   41 type  1   force =    -0.00061091   -0.00069609    0.00035065
     atom   42 type  1   force =     0.00010573    0.00009589   -0.00010675
     atom   43 type  1   force =    -0.00006929    0.00061251    0.00006929
     atom   44 type  1   force =    -0.00043731    0.00043731    0.00043731
     atom   45 type  1   force =     0.00046125   -0.00046125    0.00034865
     atom   46 type  1   force =     0.00031014   -0.00031014    0.00032378
     atom   47 type  1   force =    -0.00046557    0.00046557    0.00016844
     atom   48 type  1   force =    -0.00019345    0.00019345   -0.00039797
     atom   49 type  1   force =    -0.00006929    0.00006929    0.00061251
     atom   50 type  1   force =     0.00073722   -0.00073722   -0.00031107
     atom   51 type  1   force =    -0.00009589   -0.00010573   -0.00010675
     atom   52 type  1   force =    -0.00061251    0.00006929    0.00006929
     atom   53 type  1   force =    -0.00046557    0.00016844    0.00046557
     atom   54 type  1   force =     0.00069609    0.00061091    0.00035065
     atom   55 type  1   force =    -0.00061091    0.00035065   -0.00069609
     atom   56 type  1   force =     0.00031107   -0.00073722   -0.00073722
     atom   57 type  1   force =    -0.00035065    0.00061091   -0.00069609
     atom   58 type  1   force =     0.00073722   -0.00031107   -0.00073722
     atom   59 type  1   force =     0.00046125    0.00034865   -0.00046125
     atom   60 type  1   force =     0.00039797    0.00019345    0.00019345
     atom   61 type  1   force =     0.00010675   -0.00010573    0.00009589
     atom   62 type  1   force =     0.00069609    0.00035065    0.00061091
     atom   63 type  2   force =     0.00070596   -0.00070596   -0.00070596
     The non-local contrib.  to forces
     atom    1 type  1   force =    -0.00561724    0.00561724    0.00561724
     atom    2 type  1   force =     0.01172683   -0.01172683    0.00998095
     atom    3 type  1   force =     0.00420560   -0.00420560    0.01696553
     atom    4 type  1   force =    -0.01510561    0.01510561   -0.00073487
     atom    5 type  1   force =    -0.00998095   -0.01172683   -0.01172683
     atom    6 type  1   force =    -0.13082306   -0.12350130    0.13082306
     atom    7 type  1   force =     0.06475270    0.05716125   -0.08047475
     atom    8 type  1   force =    -0.00363013    0.01692605    0.00487109
     atom    9 type  1   force =    -0.01696553   -0.00420560   -0.00420560
     atom   10 type  1   force =     0.08047475    0.05716125   -0.06475270
     atom   11 type  1   force =     0.00420560    0.01696553   -0.00420560
     atom   12 type  1   force =    -0.05716125   -0.08047475   -0.06475270
     atom   13 type  1   force =     0.00073487    0.01510561    0.01510561
     atom   14 type  1   force =    -0.00487109    0.01692605    0.00363013
     atom   15 type  1   force =     0.06475270   -0.08047475    0.05716125
     atom   16 type  1   force =    -0.07168557    0.06492995    0.07168557
     atom   17 type  1   force =     0.01172683    0.00998095   -0.01172683
     atom   18 type  1   force =     0.12350130    0.13082306    0.13082306
     atom   19 type  1   force =    -0.05716125   -0.06475270   -0.08047475
     atom   20 type  1   force =    -0.01692605    0.00363013    0.00487109
     atom   21 type  1   force =    -0.13082306    0.13082306   -0.12350130
     atom   22 type  1   force =    -0.07168557    0.07168557    0.06492995
     atom   23 type  1   force =    -0.00875133    0.00875133   -0.00587021
     atom   24 type  1   force =     0.08047475   -0.06475270    0.05716125
     atom   25 type  1   force =    -0.06492995    0.07168557    0.07168557
     atom   26 type  1   force =    -0.01510561   -0.00073487    0.01510561
     atom   27 type  1   force =    -0.01692605    0.00487109    0.00363013
     atom   28 type  1   force =    -0.00487109    0.00363013    0.01692605
     atom   29 type  1   force =     0.00587021    0.00875133    0.00875133
     atom   30 type  1   force =    -0.00363013    0.00487109    0.01692605
     atom   31 type  1   force =    -0.00875133   -0.00587021    0.00875133
     atom   32 type  1   force =    -0.00914702   -0.00986394   -0.00986394
     atom   33 type  1   force =     0.01579432   -0.04911762   -0.01579432
     atom   34 type  1   force =     0.03912327   -0.01386957   -0.02497694
     atom   35 type  1   force =    -0.04789171    0.02441250   -0.01738568
     atom   36 type  1   force =    -0.05727602   -0.00372939   -0.00372939
     atom   37 type  1   force =     0.02497694   -0.01386957   -0.03912327
     atom   38 type  1   force =     0.00372939    0.05727602   -0.00372939
     atom   39 type  1   force =     0.01386957   -0.02497694   -0.03912327
     atom   40 type  1   force =    -0.05493274   -0.00201201   -0.00201201
     atom   41 type  1   force =     0.01738568    0.02441250    0.04789171
     atom   42 type  1   force =     0.03912327   -0.02497694   -0.01386957
     atom   43 type  1   force =    -0.22265506   -0.24548595    0.22265506
     atom   44 type  1   force =    -0.01027564    0.01027564    0.01027564
     atom   45 type  1   force =     0.00986394   -0.00986394    0.00914702
     atom   46 type  1   force =     0.00372939   -0.00372939    0.05727602
     atom   47 type  1   force =     0.00201201   -0.00201201    0.05493274
     atom   48 type  1   force =     0.01579432   -0.01579432   -0.04911762
     atom   49 type  1   force =    -0.22265506    0.22265506   -0.24548595
     atom   50 type  1   force =    -0.02310828    0.02310828   -0.06698803
     atom   51 type  1   force =     0.02497694   -0.03912327   -0.01386957
     atom   52 type  1   force =     0.24548595    0.22265506    0.22265506
     atom   53 type  1   force =     0.00201201    0.05493274   -0.00201201
     atom   54 type  1   force =    -0.02441250   -0.01738568    0.04789171
     atom   55 type  1   force =     0.01738568    0.04789171    0.02441250
     atom   56 type  1   force =     0.06698803    0.02310828    0.02310828
     atom   57 type  1   force =    -0.04789171   -0.01738568    0.02441250
     atom   58 type  1   force =    -0.02310828   -0.06698803    0.02310828
     atom   59 type  1   force =     0.00986394    0.00914702   -0.00986394
     atom   60 type  1   force =     0.04911762   -0.01579432   -0.01579432
     atom   61 type  1   force =     0.01386957   -0.03912327   -0.02497694
     atom   62 type  1   force =    -0.02441250    0.04789171   -0.01738568
     atom   63 type  2   force =     0.77153322   -0.77153322   -0.77153322
     The ionic contribution  to forces
     atom    1 type  1   force =     0.02310480   -0.02310506   -0.02310159
     atom    2 type  1   force =    -0.10286543    0.10286333   -0.29373920
     atom    3 type  1   force =    -0.10458878    0.10459016   -0.21505170
     atom    4 type  1   force =     0.13129224   -0.13129022   -0.02491806
     atom    5 type  1   force =     0.29373989    0.10286374    0.10286490
     atom    6 type  1   force =    -0.20674942    1.24393356    0.20674792
     atom    7 type  1   force =     0.21520337   -0.70699527    0.69963262
     atom    8 type  1   force =     0.13958856   -0.01231201    0.20837483
     atom    9 type  1   force =     0.21505334    0.10458934    0.10458423
     atom   10 type  1   force =    -0.69963577   -0.70699364   -0.21520364
     atom   11 type  1   force =    -0.10459083   -0.21505288    0.10459045
     atom   12 type  1   force =     0.70699726    0.69963000   -0.21520627
     atom   13 type  1   force =     0.02492011   -0.13129043   -0.13128839
     atom   14 type  1   force =    -0.20837554   -0.01231178   -0.13958681
     atom   15 type  1   force =     0.21520462    0.69963367   -0.70699756
     atom   16 type  1   force =     0.70665433    0.34989574   -0.70665036
     atom   17 type  1   force =    -0.10286612   -0.29374056    0.10286291
     atom   18 type  1   force =    -1.24393389    0.20674759    0.20675010
     atom   19 type  1   force =     0.70699789   -0.21520265    0.69963179
     atom   20 type  1   force =     0.01231096   -0.13958740    0.20837458
     atom   21 type  1   force =    -0.20675234    0.20675072    1.24392931
     atom   22 type  1   force =     0.70665111   -0.70665009    0.34989157
     atom   23 type  1   force =     0.07243689   -0.07243288    0.09135556
     atom   24 type  1   force =    -0.69963449   -0.21520405   -0.70699389
     atom   25 type  1   force =    -0.34989340   -0.70665004   -0.70664783
     atom   26 type  1   force =     0.13129429   -0.02492189   -0.13129469
     atom   27 type  1   force =     0.01231018    0.20837396   -0.13958430
     atom   28 type  1   force =    -0.20837582   -0.13958613   -0.01231204
     atom   29 type  1   force =    -0.09135554   -0.07243241   -0.07243026
     atom   30 type  1   force =     0.13958985    0.20837235   -0.01230884
     atom   31 type  1   force =     0.07243452    0.09135423   -0.07243028
     atom   32 type  1   force =     0.12278732    0.00917966    0.00918077
     atom   33 type  1   force =     0.16745768    0.11113351   -0.16745790
     atom   34 type  1   force =    -0.20693608    0.07051966    0.48355419
     atom   35 type  1   force =     0.07582791   -0.21598624    0.15031166
     atom   36 type  1   force =     0.64785800    0.23364890    0.23364956
     atom   37 type  1   force =    -0.48355433    0.07051939    0.20693424
     atom   38 type  1   force =    -0.23364984   -0.64785652    0.23364878
     atom   39 type  1   force =    -0.07052108    0.48355425    0.20693644
     atom   40 type  1   force =     0.61273522   -0.19818205   -0.19818222
     atom   41 type  1   force =    -0.15031266   -0.21598552   -0.07582741
     atom   42 type  1   force =    -0.20693905    0.48355303    0.07051963
     atom   43 type  1   force =     2.12549667    2.19072978   -2.12549470
     atom   44 type  1   force =     0.09999764   -0.09999960   -0.09999830
     atom   45 type  1   force =    -0.00918233    0.00918007   -0.12278746
     atom   46 type  1   force =    -0.23364918    0.23365067   -0.64785750
     atom   47 type  1   force =     0.19818414   -0.19818154   -0.61273414
     atom   48 type  1   force =     0.16745682   -0.16745764    0.11113114
     atom   49 type  1   force =     2.12549348   -2.12549431    2.19072746
     atom   50 type  1   force =     0.18532286   -0.18531918    0.02290292
     atom   51 type  1   force =    -0.48355719    0.20693575    0.07052007
     atom   52 type  1   force =    -2.19073041   -2.12549446   -2.12549537
     atom   53 type  1   force =     0.19818368   -0.61272872   -0.19818310
     atom   54 type  1   force =     0.21598893    0.15030807   -0.07583113
     atom   55 type  1   force =    -0.15031412   -0.07582533   -0.21598793
     atom   56 type  1   force =    -0.02290284   -0.18532087   -0.18532016
     atom   57 type  1   force =     0.07582814    0.15031059   -0.21598431
     atom   58 type  1   force =     0.18531893    0.02290254   -0.18531928
     atom   59 type  1   force =    -0.00918220   -0.12278601    0.00918055
     atom   60 type  1   force =    -0.11113358   -0.16746111   -0.16745862
     atom   61 type  1   force =    -0.07052189    0.20693758    0.48355476
     atom   62 type  1   force =     0.21598863   -0.07582845    0.15031251
     atom   63 type  2   force =    -2.98300614    2.98300515    2.98300978
     The local contribution  to forces
     atom    1 type  1   force =    -0.01753347    0.01753347    0.01753347
     atom    2 type  1   force =     0.09149364   -0.09149532    0.28418357
     atom    3 type  1   force =     0.10035936   -0.10035936    0.19817978
     atom    4 type  1   force =    -0.11649969    0.11650134    0.02605816
     atom    5 type  1   force =    -0.28418363   -0.09149531   -0.09149700
     atom    6 type  1   force =     0.33774338   -1.12085371   -0.33774685
     atom    7 type  1   force =    -0.27978583    0.64971544   -0.61904169
     atom    8 type  1   force =    -0.13635079   -0.00515334   -0.21339038
     atom    9 type  1   force =    -0.19817972   -0.10035932   -0.10036267
     atom   10 type  1   force =     0.61903960    0.64971496    0.27978275
     atom   11 type  1   force =     0.10035936    0.19817978   -0.10035936
     atom   12 type  1   force =    -0.64971504   -0.61904048    0.27978282
     atom   13 type  1   force =    -0.02605816    0.11650135    0.11650135
     atom   14 type  1   force =     0.21338874   -0.00515337    0.13635240
     atom   15 type  1   force =    -0.27978537   -0.61903956    0.64971175
     atom   16 type  1   force =    -0.63540001   -0.41398650    0.63539834
     atom   17 type  1   force =     0.09149363    0.28418360   -0.09149700
     atom   18 type  1   force =     1.12085391   -0.33774689   -0.33774516
     atom   19 type  1   force =    -0.64971384    0.27978581   -0.61904334
     atom   20 type  1   force =     0.00515339    0.13635244   -0.21339207
     atom   21 type  1   force =     0.33774371   -0.33774455   -1.12085610
     atom   22 type  1   force =    -0.63540075    0.63540242   -0.41399123
     atom   23 type  1   force =    -0.06369380    0.06369380   -0.08558861
     atom   24 type  1   force =     0.61903989    0.27978568    0.64971528
     atom   25 type  1   force =     0.41398548    0.63540190    0.63540190
     atom   26 type  1   force =    -0.11650132    0.02605816    0.11649804
     atom   27 type  1   force =     0.00515338   -0.21339040    0.13635242
     atom   28 type  1   force =     0.21338874    0.13635240   -0.00515337
     atom   29 type  1   force =     0.08558861    0.06369380    0.06369380
     atom   30 type  1   force =    -0.13635079   -0.21339038   -0.00515334
     atom   31 type  1   force =    -0.06369380   -0.08558861    0.06369380
     atom   32 type  1   force =    -0.11398926    0.00022330    0.00022244
     atom   33 type  1   force =    -0.18345136   -0.06240576    0.18344864
     atom   34 type  1   force =     0.16791742   -0.05675691   -0.45848029
     atom   35 type  1   force =    -0.02828933    0.19088274   -0.13231479
     atom   36 type  1   force =    -0.59090862   -0.23022661   -0.23022824
     atom   37 type  1   force =     0.45848043   -0.05675682   -0.16792075
     atom   38 type  1   force =     0.23022663    0.59090952   -0.23022826
     atom   39 type  1   force =     0.05675537   -0.45847898   -0.16791741
     atom   40 type  1   force =    -0.55796964    0.20066528    0.20066210
     atom   41 type  1   force =     0.13231133    0.19088272    0.02828756
     atom   42 type  1   force =     0.16791742   -0.45848029   -0.05675691
     atom   43 type  1   force =    -1.90291184   -1.94462687    1.90291065
     atom   44 type  1   force =    -0.09016227    0.09016061    0.09016061
     atom   45 type  1   force =    -0.00022594    0.00022508    0.11398664
     atom   46 type  1   force =     0.23022647   -0.23022647    0.59090589
     atom   47 type  1   force =    -0.20066359    0.20066198    0.55796684
     atom   48 type  1   force =    -0.18345112    0.18345069   -0.06240924
     atom   49 type  1   force =    -1.90291251    1.90291132   -1.94462866
     atom   50 type  1   force =    -0.16147806    0.16147896    0.04377697
     atom   51 type  1   force =     0.45847660   -0.16791728   -0.05675705
     atom   52 type  1   force =     1.94462752    1.90291355    1.90291120
     atom   53 type  1   force =    -0.20066382    0.55797420    0.20066220
     atom   54 type  1   force =    -0.19088174   -0.13231383    0.02828421
     atom   55 type  1   force =     0.13231142    0.02829084    0.19087941
     atom   56 type  1   force =    -0.04377880    0.16147564    0.16147564
     atom   57 type  1   force =    -0.02828932   -0.13231392    0.19088274
     atom   58 type  1   force =    -0.16147905    0.04377873    0.16147548
     atom   59 type  1   force =    -0.00022585    0.11399004    0.00022332
     atom   60 type  1   force =     0.06240584    0.18344890    0.18344797
     atom   61 type  1   force =     0.05675532   -0.16791747   -0.45848036
     atom   62 type  1   force =    -0.19088096    0.02828757   -0.13231477
     atom   63 type  2   force =     2.21217981   -2.21217981   -2.21217981
     The core correction contribution to forces
     atom    1 type  1   force =     0.00000000    0.00000000    0.00000000
     atom    2 type  1   force =     0.00000000    0.00000000    0.00000000
[...]
     atom   32 type  1   force =     0.00000000    0.00000000    0.00000000
     atom   33 type  1   force =     0.00000000    0.00000000    0.00000000
     atom   34 type  1   force =     0.00000000    0.00000000    0.00000000
     atom   35 type  1   force =     0.00000000    0.00000000    0.00000000
     atom   36 type  1   force =     0.00000000    0.00000000    0.00000000
     atom   37 type  1   force =     0.00000000    0.00000000    0.00000000
     atom   38 type  1   force =     0.00000000    0.00000000    0.00000000
     atom   39 type  1   force =     0.00000000    0.00000000    0.00000000
     atom   40 type  1   force =     0.00000000    0.00000000    0.00000000
     atom   41 type  1   force =     0.00000000    0.00000000    0.00000000
     atom   42 type  1   force =     0.00000000    0.00000000    0.00000000
     atom   43 type  1   force =     0.00000000    0.00000000    0.00000000
     atom   44 type  1   force =     0.00000000    0.00000000    0.00000000
     atom   45 type  1   force =     0.00000000    0.00000000    0.00000000
     atom   46 type  1   force =     0.00000000    0.00000000    0.00000000
     atom   47 type  1   force =     0.00000000    0.00000000    0.00000000
     atom   48 type  1   force =     0.00000000    0.00000000    0.00000000
     atom   49 type  1   force =     0.00000000    0.00000000    0.00000000
     atom   50 type  1   force =     0.00000000    0.00000000    0.00000000
     atom   51 type  1   force =     0.00000000    0.00000000    0.00000000
     atom   52 type  1   force =     0.00000000    0.00000000    0.00000000
     atom   53 type  1   force =     0.00000000    0.00000000    0.00000000
     atom   54 type  1   force =     0.00000000    0.00000000    0.00000000
     atom   55 type  1   force =     0.00000000    0.00000000    0.00000000
     atom   56 type  1   force =     0.00000000    0.00000000    0.00000000
     atom   57 type  1   force =     0.00000000    0.00000000    0.00000000
     atom   58 type  1   force =     0.00000000    0.00000000    0.00000000
     atom   59 type  1   force =     0.00000000    0.00000000    0.00000000
     atom   60 type  1   force =     0.00000000    0.00000000    0.00000000
     atom   61 type  1   force =     0.00000000    0.00000000    0.00000000
     atom   62 type  1   force =     0.00000000    0.00000000    0.00000000
     atom   63 type  2   force =     0.00000000    0.00000000    0.00000000
     The Hubbard contrib.    to forces
     atom    1 type  1   force =     0.00000000    0.00000000    0.00000000
     atom    2 type  1   force =     0.00000000    0.00000000    0.00000000
     atom    3 type  1   force =     0.00000000    0.00000000    0.00000000
     atom    4 type  1   force =     0.00000000    0.00000000    0.00000000
     atom    5 type  1   force =     0.00000000    0.00000000    0.00000000
     atom    6 type  1   force =     0.00000000    0.00000000    0.00000000
     atom    7 type  1   force =     0.00000000    0.00000000    0.00000000
     atom    8 type  1   force =     0.00000000    0.00000000    0.00000000
     atom    9 type  1   force =     0.00000000    0.00000000    0.00000000
     atom   10 type  1   force =     0.00000000    0.00000000    0.00000000
     atom   11 type  1   force =     0.00000000    0.00000000    0.00000000
     atom   12 type  1   force =     0.00000000    0.00000000    0.00000000
     atom   13 type  1   force =     0.00000000    0.00000000    0.00000000
     atom   14 type  1   force =     0.00000000    0.00000000    0.00000000
     atom   15 type  1   force =     0.00000000    0.00000000    0.00000000
     atom   16 type  1   force =     0.00000000    0.00000000    0.00000000
     atom   17 type  1   force =     0.00000000    0.00000000    0.00000000
     atom   18 type  1   force =     0.00000000    0.00000000    0.00000000
     atom   19 type  1   force =     0.00000000    0.00000000    0.00000000
     atom   20 type  1   force =     0.00000000    0.00000000    0.00000000
     atom   21 type  1   force =     0.00000000    0.00000000    0.00000000
     atom   22 type  1   force =     0.00000000    0.00000000    0.00000000
     atom   23 type  1   force =     0.00000000    0.00000000    0.00000000
     atom   24 type  1   force =     0.00000000    0.00000000    0.00000000
     atom   25 type  1   force =     0.00000000    0.00000000    0.00000000
     atom   26 type  1   force =     0.00000000    0.00000000    0.00000000
     atom   27 type  1   force =     0.00000000    0.00000000    0.00000000
     atom   28 type  1   force =     0.00000000    0.00000000    0.00000000
     atom   29 type  1   force =     0.00000000    0.00000000    0.00000000
     atom   30 type  1   force =     0.00000000    0.00000000    0.00000000
     atom   31 type  1   force =     0.00000000    0.00000000    0.00000000
     atom   32 type  1   force =     0.00000000    0.00000000    0.00000000
     atom   33 type  1   force =     0.00000000    0.00000000    0.00000000
     atom   34 type  1   force =     0.00000000    0.00000000    0.00000000
     atom   35 type  1   force =     0.00000000    0.00000000    0.00000000
     atom   36 type  1   force =     0.00000000    0.00000000    0.00000000
     atom   37 type  1   force =     0.00000000    0.00000000    0.00000000
     atom   38 type  1   force =     0.00000000    0.00000000    0.00000000
     atom   39 type  1   force =     0.00000000    0.00000000    0.00000000
     atom   40 type  1   force =     0.00000000    0.00000000    0.00000000
     atom   41 type  1   force =     0.00000000    0.00000000    0.00000000
     atom   42 type  1   force =     0.00000000    0.00000000    0.00000000
     atom   43 type  1   force =     0.00000000    0.00000000    0.00000000
     atom   44 type  1   force =     0.00000000    0.00000000    0.00000000
     atom   45 type  1   force =     0.00000000    0.00000000    0.00000000
     atom   46 type  1   force =     0.00000000    0.00000000    0.00000000
     atom   47 type  1   force =     0.00000000    0.00000000    0.00000000
     atom   48 type  1   force =     0.00000000    0.00000000    0.00000000
     atom   49 type  1   force =     0.00000000    0.00000000    0.00000000
     atom   50 type  1   force =     0.00000000    0.00000000    0.00000000
     atom   51 type  1   force =     0.00000000    0.00000000    0.00000000
     atom   52 type  1   force =     0.00000000    0.00000000    0.00000000
     atom   53 type  1   force =     0.00000000    0.00000000    0.00000000
     atom   54 type  1   force =     0.00000000    0.00000000    0.00000000
     atom   55 type  1   force =     0.00000000    0.00000000    0.00000000
     atom   56 type  1   force =     0.00000000    0.00000000    0.00000000
     atom   57 type  1   force =     0.00000000    0.00000000    0.00000000
     atom   58 type  1   force =     0.00000000    0.00000000    0.00000000
     atom   59 type  1   force =     0.00000000    0.00000000    0.00000000
     atom   60 type  1   force =     0.00000000    0.00000000    0.00000000
     atom   61 type  1   force =     0.00000000    0.00000000    0.00000000
     atom   62 type  1   force =     0.00000000    0.00000000    0.00000000
     atom   63 type  2   force =     0.00000000    0.00000000    0.00000000
     The SCF correction term to forces
     atom    1 type  1   force =    -0.00000032    0.00000032    0.00000032
     atom    2 type  1   force =     0.00000029   -0.00000029    0.00000027
     atom    3 type  1   force =     0.00000029   -0.00000029    0.00000038
     atom    4 type  1   force =    -0.00000035    0.00000035    0.00000029
     atom    5 type  1   force =    -0.00000027   -0.00000029   -0.00000029
     atom    6 type  1   force =     0.00000050   -0.00000041   -0.00000050
     atom    7 type  1   force =     0.00000030    0.00000049   -0.00000062
     atom    8 type  1   force =    -0.00000037    0.00000030   -0.00000031
     atom    9 type  1   force =    -0.00000038   -0.00000029   -0.00000029
     atom   10 type  1   force =     0.00000062    0.00000049   -0.00000030
     atom   11 type  1   force =     0.00000029    0.00000038   -0.00000029
     atom   12 type  1   force =    -0.00000049   -0.00000062   -0.00000030
     atom   13 type  1   force =    -0.00000029    0.00000035    0.00000035
     atom   14 type  1   force =     0.00000031    0.00000030    0.00000037
     atom   15 type  1   force =     0.00000030   -0.00000062    0.00000049
     atom   16 type  1   force =    -0.00000060   -0.00000021    0.00000060
     atom   17 type  1   force =     0.00000029    0.00000027   -0.00000029
     atom   18 type  1   force =     0.00000041   -0.00000050   -0.00000050
     atom   19 type  1   force =    -0.00000049   -0.00000030   -0.00000062
     atom   20 type  1   force =    -0.00000030    0.00000037   -0.00000031
     atom   21 type  1   force =     0.00000050   -0.00000050   -0.00000041
     atom   22 type  1   force =    -0.00000060    0.00000060   -0.00000021
     atom   23 type  1   force =    -0.00000020    0.00000020   -0.00000022
     atom   24 type  1   force =     0.00000062   -0.00000030    0.00000049
     atom   25 type  1   force =     0.00000021    0.00000060    0.00000060
     atom   26 type  1   force =    -0.00000035    0.00000029    0.00000035
     atom   27 type  1   force =    -0.00000030   -0.00000031    0.00000037
     atom   28 type  1   force =     0.00000031    0.00000037    0.00000030
     atom   29 type  1   force =     0.00000022    0.00000020    0.00000020
     atom   30 type  1   force =    -0.00000037   -0.00000031    0.00000030
     atom   31 type  1   force =    -0.00000020   -0.00000022    0.00000020
     atom   32 type  1   force =    -0.00000033   -0.00000008   -0.00000008
     atom   33 type  1   force =     0.00000007   -0.00000053   -0.00000007
     atom   34 type  1   force =     0.00000039    0.00000010   -0.00000020
     atom   35 type  1   force =    -0.00000003    0.00000047   -0.00000010
     atom   36 type  1   force =    -0.00000072   -0.00000048   -0.00000048
     atom   37 type  1   force =     0.00000020    0.00000010   -0.00000039
     atom   38 type  1   force =     0.00000048    0.00000072   -0.00000048
     atom   39 type  1   force =    -0.00000010   -0.00000020   -0.00000039
     atom   40 type  1   force =    -0.00000075    0.00000018    0.00000018
     atom   41 type  1   force =     0.00000010    0.00000047    0.00000003
     atom   42 type  1   force =     0.00000039   -0.00000020    0.00000010
     atom   43 type  1   force =    -0.00000035   -0.00000078    0.00000035
     atom   44 type  1   force =    -0.00000035    0.00000035    0.00000035
     atom   45 type  1   force =     0.00000008   -0.00000008    0.00000033
     atom   46 type  1   force =     0.00000048   -0.00000048    0.00000072
     atom   47 type  1   force =    -0.00000018    0.00000018    0.00000075
     atom   48 type  1   force =     0.00000007   -0.00000007   -0.00000053
     atom   49 type  1   force =    -0.00000035    0.00000035   -0.00000078
     atom   50 type  1   force =    -0.00000050    0.00000050   -0.00000045
     atom   51 type  1   force =     0.00000020   -0.00000039    0.00000010
     atom   52 type  1   force =     0.00000078    0.00000035    0.00000035
     atom   53 type  1   force =    -0.00000018    0.00000075    0.00000018
     atom   54 type  1   force =    -0.00000047   -0.00000010    0.00000003
     atom   55 type  1   force =     0.00000010    0.00000003    0.00000047
     atom   56 type  1   force =     0.00000045    0.00000050    0.00000050
     atom   57 type  1   force =    -0.00000003   -0.00000010    0.00000047
     atom   58 type  1   force =    -0.00000050   -0.00000045    0.00000050
     atom   59 type  1   force =     0.00000008    0.00000033   -0.00000008
     atom   60 type  1   force =     0.00000053   -0.00000007   -0.00000007
     atom   61 type  1   force =    -0.00000010   -0.00000039   -0.00000020
     atom   62 type  1   force =    -0.00000047    0.00000003   -0.00000010
     atom   63 type  2   force =     0.00000064   -0.00000064   -0.00000064

     Total force =     0.000519     Total SCF correction =     0.000005
     Energy error            =      1.1E-06 Ry
     Gradient error          =      9.6E-05 Ry/Bohr

     bfgs converged in   5 scf cycles and   4 bfgs steps
     (criteria: energy <  1.0E-05 Ry, force <  1.0E-04 Ry/Bohr)

     End of BFGS Geometry Optimization

     Final energy             =    -724.8284801818 Ry

     File ./di.bfgs deleted, as requested
Begin final coordinates

ATOMIC_POSITIONS (crystal)
C             0.0001360512       -0.0001360512       -0.0001360512
C             0.7500438834        0.2499561496       -0.0012873594
C             0.4998571475        0.5001428525        0.0001417533
C             0.2500966191        0.7499033479        0.0002742500
C             0.0012873594        0.2499561496        0.2499561826
C             0.7496887477        0.4942929305        0.2503113183
C             0.4985216665        0.7480575892        0.2527800735
C             0.2510564130        0.0008957071        0.2503993380
C            -0.0001417533        0.5001428525        0.5001429195
C             0.7472199595        0.7480575892        0.5014784005
C             0.4998571475        0.0001417533        0.5001428525
C             0.2519424108        0.2527800565        0.5014784005
C            -0.0002742500        0.7499033479        0.7499033479
C             0.7496006950        0.0008957071        0.7489435540
C             0.4985216665        0.2527800405        0.7480576552
C             0.2503483253        0.4994082708        0.7496517077
C             0.7500438834       -0.0012873594        0.2499561826
C             0.5057070695        0.2503113183        0.2503112853
C             0.2519423778        0.5014783335        0.2527801065
C            -0.0008957071        0.7489435540        0.2503993710
C             0.7496887477        0.2503112683        0.4942929975
C             0.2503483253        0.7496516417        0.4994083708
C            -0.0000188017        0.0000188017        0.4999572252
C             0.7472199595        0.5014783335        0.7480575892
C             0.5005917632        0.7496516417        0.7496516417
C             0.2500966521        0.0002742500        0.7499034139
C            -0.0008957071        0.2503993380        0.7489435540
C             0.7496006950        0.7489435540        0.0008957071
C             0.5000427748        0.0000188017        0.0000188017
C             0.2510564130        0.2503993380        0.0008957071
C            -0.0000188017        0.4999572252        0.0000188017
C             0.1258932129        0.1251744971        0.1251745141
C             0.8764883318        0.3746825285        0.1235117182
C             0.6237468894        0.6228512238        0.1272210232
C             0.3756594229        0.8755731332        0.1248263253
C             0.1260709150        0.3755365844        0.3755366184
C             0.8727789768        0.6228512238        0.3762531776
C             0.6244634156        0.8739290680        0.3755366184
C             0.3771488102        0.1272209982        0.3762531106
C             0.1250915439        0.6251015168        0.6251015838
C             0.8751737417        0.8755731332        0.6243406111
C             0.6237468894        0.1272210232        0.6228512238
C             0.3662196473        0.3699124306        0.6337803867
C             0.1250674377        0.8749325953        0.8749325953
C             0.8748255529        0.1251744641        0.8741068371
C             0.6244634156        0.3755365844        0.8739291350
C             0.3748984502        0.6251015838        0.8749085061
C             0.8764883318        0.1235116762        0.3746825955
C             0.3662196473        0.6337803867        0.3699124646
C             0.1240496855        0.8759502975        0.3760118321
C             0.8727790438        0.3762531106        0.6228512238
C             0.6300875694        0.6337803197        0.6337803867
C             0.3748984502        0.8749083721        0.6251015838
C             0.1244268498        0.1248263083        0.6243406781
C             0.8751737417        0.6243405441        0.8755732002
C             0.6239882019        0.8759503645        0.8759503645
C             0.3756594229        0.1248263083        0.8755731332
C             0.1240497025        0.3760117981        0.8759503645
C             0.8748255529        0.8741067701        0.1251744971
C             0.6253174715        0.1235117182        0.1235117352
C             0.3771488102        0.3762531106        0.1272210232
C             0.1244268328        0.6243406111        0.1248263253
N             0.6364532832        0.3635467168        0.3635467168
End final coordinates



     Writing all to output data dir ./di.save/
 
     init_run     :      2.10s CPU      2.33s WALL (       1 calls)
     electrons    :    213.06s CPU    216.84s WALL (       5 calls)
     update_pot   :      0.33s CPU      0.33s WALL (       4 calls)
     forces       :      5.01s CPU      5.03s WALL (       5 calls)

     Called by init_run:
     wfcinit      :      1.85s CPU      2.03s WALL (       1 calls)
     wfcinit:atom :      0.02s CPU      0.04s WALL (       8 calls)
     wfcinit:wfcr :      1.56s CPU      1.68s WALL (       8 calls)
     potinit      :      0.07s CPU      0.08s WALL (       1 calls)
     hinit0       :      0.12s CPU      0.14s WALL (       1 calls)

     Called by electrons:
     c_bands      :    197.22s CPU    200.70s WALL (      50 calls)
     sum_band     :     13.52s CPU     13.69s WALL (      50 calls)
     v_of_rho     :      1.91s CPU      1.93s WALL (      51 calls)
     v_h          :      0.06s CPU      0.06s WALL (      51 calls)
     v_xc         :      1.84s CPU      1.87s WALL (      51 calls)
     mix_rho      :      0.42s CPU      0.44s WALL (      50 calls)

     Called by c_bands:
     init_us_2    :      4.05s CPU      4.07s WALL (     848 calls)
     init_us_2:cp :      4.05s CPU      4.07s WALL (     848 calls)
     cegterg      :    183.19s CPU    186.49s WALL (     400 calls)

     Called by sum_band:
     sum_band:wei :      0.01s CPU      0.01s WALL (      50 calls)
     sum_band:loo :     13.18s CPU     13.33s WALL (      50 calls)
     sum_band:buf :      0.66s CPU      0.68s WALL (     400 calls)
     sum_band:ini :      1.92s CPU      1.93s WALL (     400 calls)

     Called by *egterg:
     cdiaghg      :     29.67s CPU     29.88s WALL (    2017 calls)
     cegterg:over :     20.55s CPU     20.62s WALL (    1681 calls)
     cegterg:upda :     17.93s CPU     18.37s WALL (    1681 calls)
     cegterg:last :     21.28s CPU     21.37s WALL (     913 calls)
     cdiaghg:chol :      1.87s CPU      1.92s WALL (    2017 calls)
     cdiaghg:inve :      0.69s CPU      0.71s WALL (    2017 calls)
     cdiaghg:para :      5.26s CPU      5.30s WALL (    4034 calls)
     h_psi        :     83.88s CPU     85.01s WALL (    2089 calls)
     g_psi        :      0.75s CPU      0.76s WALL (    1681 calls)

     Called by h_psi:
     h_psi:calbec :     14.88s CPU     14.94s WALL (    2089 calls)
     vloc_psi     :     51.63s CPU     52.26s WALL (    2089 calls)
     add_vuspsi   :     16.64s CPU     16.70s WALL (    2089 calls)

     General routines
     calbec       :     18.34s CPU     18.42s WALL (    2249 calls)
     fft          :      0.57s CPU      0.59s WALL (     976 calls)
     ffts         :      0.06s CPU      0.06s WALL (     100 calls)
     fftw         :     52.41s CPU     53.01s WALL (  199342 calls)
 
     Parallel routines
 
     PWSCF        :   3m41.38s CPU   3m47.30s WALL

 
   This run was terminated on:  11:25:24  29Jan2024            

=------------------------------------------------------------------------------=
   JOB DONE.
=------------------------------------------------------------------------------=
