 vasp.5.4.4.18Apr17-6-g9f103f2a35 (build Oct 24 2023 15:04:34) complex          
  
 executed on             LinuxIFC date 2024.02.08  16:23:39
 running on  128 total cores
 distrk:  each k-point on   64 cores,    2 groups
 distr:  one band on NCORES_PER_BAND=   2 cores,   32 groups


--------------------------------------------------------------------------------------------------------


 INCAR:
 POTCAR:    PAW_PBE C 08Apr2002                   
 POTCAR:    PAW_PBE N 08Apr2002                   

 ----------------------------------------------------------------------------- 
|                                                                             |
|           W    W    AA    RRRRR   N    N  II  N    N   GGGG   !!!           |
|           W    W   A  A   R    R  NN   N  II  NN   N  G    G  !!!           |
|           W    W  A    A  R    R  N N  N  II  N N  N  G       !!!           |
|           W WW W  AAAAAA  RRRRR   N  N N  II  N  N N  G  GGG   !            |
|           WW  WW  A    A  R   R   N   NN  II  N   NN  G    G                |
|           W    W  A    A  R    R  N    N  II  N    N   GGGG   !!!           |
|                                                                             |
|      For optimal performance we recommend to set                            |
|        NCORE= 4 - approx SQRT( number of cores)                             |
|      NCORE specifies how many cores store one orbital (NPAR=cpu/NCORE).     |
|      This setting can  greatly improve the performance of VASP for DFT.     |
|      The default,   NCORE=1            might be grossly inefficient         |
|      on modern multi-core architectures or massively parallel machines.     |
|      Do your own testing !!!!                                               |
|      Unfortunately you need to use the default for GW and RPA calculations. |
|      (for HF NCORE is supported but not extensively tested yet)             |
|                                                                             |
 ----------------------------------------------------------------------------- 


 ----------------------------------------------------------------------------- 
|                                                                             |
|           W    W    AA    RRRRR   N    N  II  N    N   GGGG   !!!           |
|           W    W   A  A   R    R  NN   N  II  NN   N  G    G  !!!           |
|           W    W  A    A  R    R  N N  N  II  N N  N  G       !!!           |
|           W WW W  AAAAAA  RRRRR   N  N N  II  N  N N  G  GGG   !            |
|           WW  WW  A    A  R   R   N   NN  II  N   NN  G    G                |
|           W    W  A    A  R    R  N    N  II  N    N   GGGG   !!!           |
|                                                                             |
|      You have enabled k-point parallelism (KPAR>1).                         |
|      This developmental code was originally  written by Paul Kent at ORNL,  |
|      and carefully double checked in Vienna.                                |
|      GW as well as linear response parallelism added by Martijn Marsman     |
|      and Georg Kresse.                                                      |
|      Carefully verify results versus KPAR=1.                                |
|      Report problems to Paul Kent and Vienna.                               |
|                                                                             |
 ----------------------------------------------------------------------------- 

 POTCAR:    PAW_PBE C 08Apr2002                   
   VRHFIN =C: s2p2                                                              
   LEXCH  = PE                                                                  
   EATOM  =   147.1560 eV,   10.8157 Ry                                         
                                                                                
   TITEL  = PAW_PBE C 08Apr2002                                                 
   LULTRA =        F    use ultrasoft PP ?                                      
   IUNSCR =        1    unscreen: 0-lin 1-nonlin 2-no                           
   RPACOR =    1.200    partial core radius                                     
   POMASS =   12.011; ZVAL   =    4.000    mass and valenz                      
   RCORE  =    1.500    outmost cutoff radius                                   
   RWIGS  =    1.630; RWIGS  =    0.863    wigner-seitz radius (au A)           
   ENMAX  =  400.000; ENMIN  =  300.000 eV                                      
   ICORE  =        2    local potential                                         
   LCOR   =        T    correct aug charges                                     
   LPAW   =        T    paw PP                                                  
   EAUG   =  644.873                                                            
   DEXC   =    0.000                                                            
   RMAX   =    1.529    core radius for proj-oper                               
   RAUG   =    1.300    factor for augmentation sphere                          
   RDEP   =    1.501    radius for radial grids                                 
   RDEPT  =    1.300    core radius for aug-charge                              
                                                                                
   Atomic configuration                                                         
    4 entries                                                                   
     n  l   j            E        occ.                                          
     1  0  0.50      -273.3789   2.0000                                         
     2  0  0.50       -13.7508   2.0000                                         
     2  1  0.50        -5.2854   2.0000                                         
     3  2  1.50        -5.4423   0.0000                                         
   Description                                                                  
     l       E           TYP  RCUT    TYP  RCUT                                 
     0    -13.7508458     23  1.200                                             
     0     -8.2022199     23  1.200                                             
     1     -5.2854383     23  1.500                                             
     1     34.0145650     23  1.500                                             
     2     -5.4423304      7  1.500                                             
  local pseudopotential read in
  partial core-charges read in
  partial kinetic energy density read in
  atomic valenz-charges read in
  non local Contribution for L=           0  read in
    real space projection operators read in
  non local Contribution for L=           0  read in
    real space projection operators read in
  non local Contribution for L=           1  read in
    real space projection operators read in
  non local Contribution for L=           1  read in
    real space projection operators read in
    PAW grid and wavefunctions read in
 
   number of l-projection  operators is LMAX  =           4
   number of lm-projection operators is LMMAX =           8
 
 POTCAR:    PAW_PBE N 08Apr2002                   
   VRHFIN =N: s2p3                                                              
   LEXCH  = PE                                                                  
   EATOM  =   264.5486 eV,   19.4438 Ry                                         
                                                                                
   TITEL  = PAW_PBE N 08Apr2002                                                 
   LULTRA =        F    use ultrasoft PP ?                                      
   IUNSCR =        1    unscreen: 0-lin 1-nonlin 2-no                           
   RPACOR =    1.200    partial core radius                                     
   POMASS =   14.001; ZVAL   =    5.000    mass and valenz                      
   RCORE  =    1.500    outmost cutoff radius                                   
   RWIGS  =    1.400; RWIGS  =    0.741    wigner-seitz radius (au A)           
   ENMAX  =  400.000; ENMIN  =  300.000 eV                                      
   ICORE  =        2    local potential                                         
   LCOR   =        T    correct aug charges                                     
   LPAW   =        T    paw PP                                                  
   EAUG   =  627.112                                                            
   DEXC   =    0.000                                                            
   RMAX   =    1.529    core radius for proj-oper                               
   RAUG   =    1.300    factor for augmentation sphere                          
   RDEP   =    1.514    radius for radial grids                                 
   RDEPT  =    1.338    core radius for aug-charge                              
                                                                                
   Atomic configuration                                                         
    4 entries                                                                   
     n  l   j            E        occ.                                          
     1  0  0.50      -384.7179   2.0000                                         
     2  0  0.50       -18.5828   2.0000                                         
     2  1  0.50        -7.0898   3.0000                                         
     3  2  1.50        -6.8029   0.0000                                         
   Description                                                                  
     l       E           TYP  RCUT    TYP  RCUT                                 
     0    -18.5828119     23  1.200                                             
     0    -13.5018863     23  1.200                                             
     1     -7.0897853     23  1.500                                             
     1      9.5240782     23  1.500                                             
     2     -6.8029130      7  1.500                                             
  local pseudopotential read in
  partial core-charges read in
  partial kinetic energy density read in
  atomic valenz-charges read in
  non local Contribution for L=           0  read in
    real space projection operators read in
  non local Contribution for L=           0  read in
    real space projection operators read in
  non local Contribution for L=           1  read in
    real space projection operators read in
  non local Contribution for L=           1  read in
    real space projection operators read in
    PAW grid and wavefunctions read in
 
   number of l-projection  operators is LMAX  =           4
   number of lm-projection operators is LMMAX =           8
 

 ----------------------------------------------------------------------------- 
|                                                                             |
|  ADVICE TO THIS USER RUNNING 'VASP/VAMP'   (HEAR YOUR MASTER'S VOICE ...):  |
|                                                                             |
|      You have a (more or less) 'large supercell' and for larger cells       |
|      it might be more efficient to use real space projection opertators     |
|      So try LREAL= Auto  in the INCAR   file.                               |
|      Mind:          For very  accurate calculation you might also keep the  |
|      reciprocal projection scheme          (i.e. LREAL=.FALSE.)             |
|                                                                             |
 ----------------------------------------------------------------------------- 

  PAW_PBE C 08Apr2002                   :
 energy of atom  1       EATOM= -147.1560
 kinetic energy error for atom=    0.0076 (will be added to EATOM!!)
  PAW_PBE N 08Apr2002                   :
 energy of atom  2       EATOM= -264.5486
 kinetic energy error for atom=    0.0138 (will be added to EATOM!!)
 
 
 POSCAR: Generated from the PW2PY python module  
  positions in direct lattice
  velocities in cartesian coordinates
 exchange correlation table for  LEXCH =        8
   RHO(1)=    0.500       N(1)  =     2000
   RHO(2)=  100.500       N(2)  =     4000

 VTST: version 3.1, (03/28/14)

 CHAIN: initializing optimizer
 
 OPT: Using VASP Conjugate-Gradient optimizer
 CHAIN: Read ICHAIN            0
 
 POSCAR: Generated from the PW2PY python module  
  positions in direct lattice
  velocities in cartesian coordinates
 


--------------------------------------------------------------------------------------------------------


 ion  position               nearest neighbor table
   1  0.000  1.000  1.000-  12 1.54  13 1.55  27 1.55  32 1.55
   2  0.624  0.623  0.127-  35 1.54  39 1.55  38 1.56  60 1.56
   3  0.376  0.876  0.125-  61 1.54  40 1.55  36 1.55  39 1.56
   4  0.126  0.376  0.376-  51 1.54  44 1.54  41 1.55  37 1.55
   5  0.873  0.623  0.376-  41 1.54  42 1.55  38 1.56  52 1.56
   6  0.624  0.874  0.376-  39 1.54  42 1.54  43 1.55  49 1.55
   7  0.377  0.127  0.376-  43 1.54  44 1.55  50 1.56  40 1.56
   8  0.125  0.625  0.625-  45 1.55  41 1.55  54 1.55  62 1.55
   9  0.875  0.876  0.624-  55 1.54  46 1.55  45 1.55  42 1.56
  10  0.624  0.127  0.623-  43 1.54  48 1.55  53 1.56  46 1.56
  11  0.367  0.370  0.633-  62 1.49  44 1.50  48 1.50
  12  0.125  0.875  0.875-   1 1.54  58 1.55  36 1.55  45 1.55
  13  0.875  0.125  0.874-  34 1.54  59 1.54  46 1.54   1 1.55
  14  0.624  0.376  0.874-  48 1.54  56 1.54  35 1.55  34 1.55
  15  0.876  0.375  0.124-  47 1.53  38 1.54  37 1.55  34 1.55
  16  0.375  0.625  0.875-  36 1.55  35 1.55  57 1.55  62 1.55
  17  0.367  0.633  0.370-  54 1.49  39 1.50  51 1.50
  18  0.124  0.876  0.376-  55 1.53  54 1.55  52 1.56  40 1.56
  19  0.873  0.376  0.623-  41 1.54  56 1.55  53 1.56  59 1.56
  20  0.630  0.633  0.633-  57 1.49  56 1.50  42 1.50
  21  0.375  0.875  0.625-  58 1.55  43 1.55  54 1.55  57 1.55
  22  0.124  0.125  0.624-  55 1.54  59 1.55  58 1.55  44 1.56
  23  0.875  0.624  0.876-  47 1.54  60 1.55  45 1.55  56 1.56
  24  0.624  0.876  0.876-  61 1.53  57 1.55  60 1.56  46 1.56
  25  0.376  0.125  0.876-  61 1.54  33 1.55  58 1.55  48 1.56
  26  0.124  0.376  0.876-  47 1.53  62 1.55  33 1.56  59 1.56
  27  0.875  0.874  0.125-  49 1.54  52 1.54  60 1.54   1 1.55
  28  0.625  0.124  0.124-  61 1.53  50 1.54  49 1.55  34 1.55
  29  0.377  0.376  0.127-  35 1.54  51 1.55  50 1.56  33 1.56
  30  0.876  0.124  0.375-  55 1.53  53 1.54  49 1.55  37 1.55
  31  0.124  0.624  0.125-  47 1.54  52 1.55  36 1.55  51 1.56
  32  0.126  0.125  0.125-  37 1.54  40 1.54  33 1.54   1 1.55
  33  0.251  0.250  0.001-  32 1.54  25 1.55  26 1.56  29 1.56
  34  0.750  0.250  0.999-  13 1.54  14 1.55  15 1.55  28 1.55
  35  0.500  0.500  0.000-  29 1.54   2 1.54  16 1.55  14 1.55
  36  0.250  0.750  0.000-  16 1.55  12 1.55  31 1.55   3 1.55
  37  0.001  0.250  0.250-  32 1.54   4 1.55  15 1.55  30 1.55
  38  0.750  0.494  0.250-  63 1.48  15 1.54   5 1.56   2 1.56
  39  0.499  0.748  0.253-  17 1.50   6 1.54   2 1.55   3 1.56
  40  0.251  0.001  0.250-  32 1.54   3 1.55  18 1.56   7 1.56
  41  1.000  0.500  0.500-  19 1.54   5 1.54   8 1.55   4 1.55
  42  0.747  0.748  0.501-  20 1.50   6 1.54   5 1.55   9 1.56
  43  0.500  0.000  0.500-   7 1.54  10 1.54  21 1.55   6 1.55
  44  0.252  0.253  0.501-  11 1.50   4 1.54   7 1.55  22 1.56
  45  1.000  0.750  0.750-   8 1.55  12 1.55   9 1.55  23 1.55
  46  0.750  0.001  0.749-  13 1.54   9 1.55  24 1.56  10 1.56
  47  1.000  0.500  0.000-  26 1.53  15 1.53  23 1.54  31 1.54
  48  0.499  0.253  0.748-  11 1.50  14 1.54  10 1.55  25 1.56
  49  0.750  0.999  0.250-  27 1.54   6 1.55  30 1.55  28 1.55
  50  0.506  0.250  0.250-  63 1.48  28 1.54  29 1.56   7 1.56
  51  0.252  0.501  0.253-  17 1.50   4 1.54  29 1.55  31 1.56
  52  0.999  0.749  0.250-  27 1.54  31 1.55  18 1.56   5 1.56
  53  0.750  0.250  0.494-  63 1.48  30 1.54  10 1.56  19 1.56
  54  0.250  0.750  0.499-  17 1.49  21 1.55   8 1.55  18 1.55
  55  1.000  0.000  0.500-  18 1.53  30 1.53   9 1.54  22 1.54
  56  0.747  0.501  0.748-  20 1.50  14 1.54  19 1.55  23 1.56
  57  0.501  0.750  0.750-  20 1.49  21 1.55  16 1.55  24 1.55
  58  0.250  0.000  0.750-  21 1.55  12 1.55  25 1.55  22 1.55
  59  0.999  0.250  0.749-  13 1.54  22 1.55  26 1.56  19 1.56
  60  0.750  0.749  0.001-  27 1.54  23 1.55  24 1.56   2 1.56
  61  0.500  0.000  0.000-  24 1.53  28 1.53  25 1.54   3 1.54
  62  0.250  0.499  0.750-  11 1.49   8 1.55  16 1.55  26 1.55
  63  0.636  0.364  0.364-  50 1.48  38 1.48  53 1.48
 
  LATTYP: Found a simple cubic cell.
 ALAT       =     7.1365880970
  
  Lattice vectors:
  
 A1 = (   7.1365880970,   0.0000000000,   0.0000000000)
 A2 = (   0.0000000000,   7.1365880970,   0.0000000000)
 A3 = (   0.0000000000,   0.0000000000,   7.1365880970)


Analysis of symmetry for initial positions (statically):
=====================================================================
 Subroutine PRICEL returns:
 Original cell was already a primitive cell.
 

 Routine SETGRP: Setting up the symmetry group for a 
 simple cubic supercell.


 Subroutine GETGRP returns: Found  6 space group operations
 (whereof  6 operations were pure point group operations)
 out of a pool of 48 trial point group operations.


The static configuration has the point symmetry C_3v.


Analysis of symmetry for dynamics (positions and initial velocities):
=====================================================================
 Subroutine PRICEL returns:
 Original cell was already a primitive cell.
 

 Routine SETGRP: Setting up the symmetry group for a 
 simple cubic supercell.


 Subroutine GETGRP returns: Found  6 space group operations
 (whereof  6 operations were pure point group operations)
 out of a pool of 48 trial point group operations.


The dynamic configuration has the point symmetry C_3v.


Analysis of structural, dynamic, and magnetic symmetry:
=====================================================================
 Subroutine PRICEL returns:
 Original cell was already a primitive cell.
 

 Routine SETGRP: Setting up the symmetry group for a 
 simple cubic supercell.


 Subroutine GETGRP returns: Found  6 space group operations
 (whereof  6 operations were pure point group operations)
 out of a pool of 48 trial point group operations.


The magnetic configuration has the point symmetry C_3v.


 Subroutine INISYM returns: Found  6 space group operations
 (whereof  6 operations are pure point group operations),
 and found     1 'primitive' translations

 
 
 KPOINTS: K-Spacing Value to Generate K-Mesh: 0.00

Automatic generation of k-mesh.
Space group operators:
 irot       det(A)        alpha          n_x          n_y          n_z        tau_x        tau_y        tau_z
    1     1.000000     0.000000     1.000000     0.000000     0.000000     0.000000     0.000000     0.000000
    2     1.000000   120.000000    -0.577350     0.577350     0.577350     0.000000     0.000000     0.000000
    3    -1.000000   180.000000     0.707107     0.000000     0.707107     0.000000     0.000000     0.000000
    4    -1.000000   180.000000     0.707107     0.707107     0.000000     0.000000     0.000000     0.000000
    5     1.000000   120.000000     0.577350    -0.577350    -0.577350     0.000000     0.000000     0.000000
    6    -1.000000   180.000000     0.000000    -0.707107     0.707107     0.000000     0.000000     0.000000
 
 Subroutine IBZKPT returns following result:
 ===========================================
 
 Found      6 irreducible k-points:
 
 Following reciprocal coordinates:
            Coordinates               Weight
  0.000000  0.000000  0.000000      1.000000
  0.333333  0.000000  0.000000      6.000000
  0.333333  0.333333  0.000000      6.000000
 -0.333333  0.333333  0.000000      6.000000
  0.333333  0.333333  0.333333      6.000000
 -0.333333  0.333333  0.333333      2.000000
 
 Following cartesian coordinates:
            Coordinates               Weight
  0.000000  0.000000  0.000000      1.000000
  0.046708  0.000000  0.000000      6.000000
  0.046708  0.046708  0.000000      6.000000
 -0.046708  0.046708  0.000000      6.000000
  0.046708  0.046708  0.046708      6.000000
 -0.046708  0.046708  0.046708      2.000000
 


--------------------------------------------------------------------------------------------------------




 Dimension of arrays:
   k-points           NKPTS =      6   k-points in BZ     NKDIM =      6   number of bands    NBANDS=    192
   number of dos      NEDOS =    301   number of ions     NIONS =     63
   non local maximal  LDIM  =      4   non local SUM 2l+1 LMDIM =      8
   total plane-waves  NPLWV =  64000
   max r-space proj   IRMAX =      1   max aug-charges    IRDMAX=  17532
   dimension x,y,z NGX =    40 NGY =   40 NGZ =   40
   dimension x,y,z NGXF=    80 NGYF=   80 NGZF=   80
   support grid    NGXF=   160 NGYF=  160 NGZF=  160
   ions per type =              62   1
   NGX,Y,Z   is equivalent  to a cutoff of   9.32,  9.32,  9.32 a.u.
   NGXF,Y,Z  is equivalent  to a cutoff of  18.64, 18.64, 18.64 a.u.

 SYSTEM =  unknown system                          
 POSCAR =  Generated from the PW2PY python module  

 Startparameter for this run:
   NWRITE =      2    write-flag & timer
   PREC   = normal    normal or accurate (medium, high low for compatibility)
   ISTART =      0    job   : 0-new  1-cont  2-samecut
   ICHARG =      2    charge: 1-file 2-atom 10-const
   ISPIN  =      2    spin polarized calculation?
   LNONCOLLINEAR =      F non collinear calculations
   LSORBIT =      F    spin-orbit coupling
   INIWAV =      1    electr: 0-lowe 1-rand  2-diag
   LASPH  =      F    aspherical Exc in radial PAW
   METAGGA=      F    non-selfconsistent MetaGGA calc.

 Electronic Relaxation 1
   ENCUT  =  500.0 eV  36.75 Ry    6.06 a.u.  13.01 13.01 13.01*2*pi/ulx,y,z
   ENINI  =  500.0     initial cutoff
   ENAUG  =  644.9 eV  augmentation charge cutoff
   NELM   =     60;   NELMIN=  2; NELMDL= -5     # of ELM steps 
   EDIFF  = 0.1E-07   stopping-criterion for ELM
   LREAL  =      F    real-space projection
   NLSPLINE    = F    spline interpolate recip. space projectors
   LCOMPAT=      F    compatible to vasp.4.4
   GGA_COMPAT  = T    GGA compatible to vasp.4.4-vasp.4.6
   LMAXPAW     = -100 max onsite density
   LMAXMIX     =    2 max onsite mixed and CHGCAR
   VOSKOWN=      0    Vosko Wilk Nusair interpolation
   ROPT   =    0.00000   0.00000
 Ionic relaxation
   EDIFFG = -.1E-01   stopping-criterion for IOM
   NSW    =    100    number of steps for IOM
   NBLOCK =      1;   KBLOCK =    100    inner block; outer block 
   IBRION =      2    ionic relax: 0-MD 1-quasi-New 2-CG
   NFREE  =      1    steps in history (QN), initial steepest desc. (CG)
   ISIF   =      2    stress and relaxation
   IWAVPR =     11    prediction:  0-non 1-charg 2-wave 3-comb
   ISYM   =      1    0-nonsym 1-usesym 2-fastsym
   LCORR  =      T    Harris-Foulkes like correction to forces

   POTIM  = 0.5000    time-step for ionic-motion
   TEIN   =    0.0    initial temperature
   TEBEG  =    0.0;   TEEND  =   0.0 temperature during run
   SMASS  =  -3.00    Nose mass-parameter (am)
   estimated Nose-frequenzy (Omega)   =  0.10E-29 period in steps =****** mass=  -0.116E-26a.u.
   SCALEE = 1.0000    scale energy and forces
   NPACO  =    256;   APACO  = 16.0  distance and # of slots for P.C.
   PSTRESS=    0.0 pullay stress

  Mass of Ions in am
   POMASS =  12.01 14.00
  Ionic Valenz
   ZVAL   =   4.00  5.00
  Atomic Wigner-Seitz radii
   RWIGS  =  -1.00 -1.00
  virtual crystal weights 
   VCA    =   1.00  1.00
   NELECT =     253.0000    total number of electrons
   NUPDOWN=      -1.0000    fix difference up-down

 DOS related values:
   EMIN   =  10.00;   EMAX   =-10.00  energy-range for DOS
   EFERMI =   0.00
   ISMEAR =    -2;   SIGMA  =   0.05  broadening in eV -4-tet -1-fermi 0-gaus

 Electronic relaxation 2 (details)
   IALGO  =     38    algorithm
   LDIAG  =      T    sub-space diagonalisation (order eigenvalues)
   LSUBROT=      F    optimize rotation matrix (better conditioning)
   TURBO    =      0    0=normal 1=particle mesh
   IRESTART =      0    0=no restart 2=restart with 2 vectors
   NREBOOT  =      0    no. of reboots
   NMIN     =      0    reboot dimension
   EREF     =   0.00    reference energy to select bands
   IMIX   =      4    mixing-type and parameters
     AMIX     =   0.40;   BMIX     =  1.00
     AMIX_MAG =   1.60;   BMIX_MAG =  1.00
     AMIN     =   0.10
     WC   =   100.;   INIMIX=   1;  MIXPRE=   1;  MAXMIX= -45

 Intra band minimization:
   WEIMIN = 0.0010     energy-eigenvalue tresh-hold
   EBREAK =  0.13E-10  absolut break condition
   DEPER  =   0.30     relativ break condition  

   TIME   =   0.40     timestep for ELM

  volume/ion in A,a.u.               =       5.77        38.93
  Fermi-wavevector in a.u.,A,eV,Ry     =   1.450856  2.741721 28.640043  2.104984
  Thomas-Fermi vector in A             =   2.568420
 
 Write flags
   LWAVE        =      T    write WAVECAR
   LDOWNSAMPLE  =      F    k-point downsampling of WAVECAR
   LCHARG       =      T    write CHGCAR
   LVTOT        =      F    write LOCPOT, total local potential
   LVHAR        =      T    write LOCPOT, Hartree potential only
   LELF         =      F    write electronic localiz. function (ELF)
   LORBIT       =     11    0 simple, 1 ext, 2 COOP (PROOUT), +10 PAW based schemes


 Dipole corrections
   LMONO  =      F    monopole corrections only (constant potential shift)
   LDIPOL =      F    correct potential (dipole corrections)
   IDIPOL =      0    1-x, 2-y, 3-z, 4-all directions 
   EPSILON=  1.0000000 bulk dielectric constant

 Exchange correlation treatment:
   GGA     =    --    GGA type
   LEXCH   =     8    internal setting for exchange type
   VOSKOWN=      0    Vosko Wilk Nusair interpolation
   LHFCALC =     F    Hartree Fock is set to
   LHFONE  =     F    Hartree Fock one center treatment
   AEXX    =    0.0000 exact exchange contribution

 Linear response parameters
   LEPSILON=     F    determine dielectric tensor
   LRPA    =     F    only Hartree local field effects (RPA)
   LNABLA  =     F    use nabla operator in PAW spheres
   LVEL    =     F    velocity operator in full k-point grid
   LINTERFAST=   F  fast interpolation
   KINTER  =     0    interpolate to denser k-point grid
   CSHIFT  =0.1000    complex shift for real part using Kramers Kronig
   OMEGAMAX=  -1.0    maximum frequency
   DEG_THRESHOLD= 0.2000000E-02 threshold for treating states as degnerate
   RTIME   =   -0.100 relaxation time in fs
  (WPLASMAI=    0.000 imaginary part of plasma frequency in eV, 0.658/RTIME)
   DFIELD  = 0.0000000 0.0000000 0.0000000 field for delta impulse in time
 
 Orbital magnetization related:
   ORBITALMAG=     F  switch on orbital magnetization
   LCHIMAG   =     F  perturbation theory with respect to B field
   DQ        =  0.001000  dq finite difference perturbation B field
   LLRAUG    =     F  two centre corrections for induced B field



--------------------------------------------------------------------------------------------------------


 conjugate gradient relaxation of ions
 charge density and potential will be updated during run
 spin polarized calculation
 Variant of blocked Davidson
 Davidson routine will perform the subspace rotation
 perform sub-space diagonalisation
    after iterative eigenvector-optimisation
 modified Broyden-mixing scheme, WC =      100.0
 initial mixing is a Kerker type mixing with AMIX =  0.4000 and BMIX =      1.0000
 Hartree-type preconditioning will be used
 using additional bands           65
 reciprocal scheme for non local part
 use partial core corrections
 calculate Harris-corrections to forces 
   (improved forces if not selfconsistent)
 use gradient corrections 
 use of overlap-Matrix (Vanderbilt PP)
 partial occupancies read from INCAR or WAVECAR (fixed during run)


--------------------------------------------------------------------------------------------------------


  energy-cutoff  :      500.00
  volume of cell :      363.47
      direct lattice vectors                 reciprocal lattice vectors
     7.136588097  0.000000000  0.000000000     0.140122981  0.000000000  0.000000000
     0.000000000  7.136588097  0.000000000     0.000000000  0.140122981  0.000000000
     0.000000000  0.000000000  7.136588097     0.000000000  0.000000000  0.140122981

  length of vectors
     7.136588097  7.136588097  7.136588097     0.140122981  0.140122981  0.140122981


 
 k-points in units of 2pi/SCALE and weight: K-Spacing Value to Generate K-Mesh: 0.00
   0.00000000  0.00000000  0.00000000       0.037
   0.04670766  0.00000000  0.00000000       0.222
   0.04670766  0.04670766  0.00000000       0.222
  -0.04670766  0.04670766  0.00000000       0.222
   0.04670766  0.04670766  0.04670766       0.222
  -0.04670766  0.04670766  0.04670766       0.074
 
 k-points in reciprocal lattice and weights: K-Spacing Value to Generate K-Mesh: 0.00
   0.00000000  0.00000000  0.00000000       0.037
   0.33333333  0.00000000  0.00000000       0.222
   0.33333333  0.33333333  0.00000000       0.222
  -0.33333333  0.33333333  0.00000000       0.222
   0.33333333  0.33333333  0.33333333       0.222
  -0.33333333  0.33333333  0.33333333       0.074
 
 position of ions in fractional coordinates (direct lattice) 
   0.00013647  0.99986353  0.99986353
   0.62376551  0.62285014  0.12722841
   0.37567579  0.87554220  0.12485760
   0.12608009  0.37552567  0.37552571
   0.87277159  0.62285014  0.37623456
   0.62447433  0.87391989  0.37552571
   0.37714989  0.12722839  0.37623449
   0.12509582  0.62508614  0.62508621
   0.87514247  0.87554220  0.62432425
   0.62376551  0.12722841  0.62285014
   0.36650259  0.37015102  0.63349745
   0.12506856  0.87493147  0.87493147
   0.87483086  0.12516916  0.87408206
   0.62447433  0.37552567  0.87391996
   0.87644526  0.37466952  0.12355479
   0.37491382  0.62508621  0.87490423
   0.36650259  0.63349745  0.37015105
   0.12407994  0.87592005  0.37601219
   0.87277165  0.37623449  0.62285014
   0.62984898  0.63349738  0.63349745
   0.37491382  0.87490409  0.62508621
   0.12445778  0.12485758  0.62432431
   0.87514247  0.62432418  0.87554227
   0.62398784  0.87592011  0.87592011
   0.37567579  0.12485758  0.87554220
   0.12407995  0.37601216  0.87592011
   0.87483086  0.87408199  0.12516919
   0.62533048  0.12355479  0.12355481
   0.37714989  0.37623449  0.12722841
   0.87644526  0.12355475  0.37466959
   0.12445776  0.62432425  0.12485760
   0.12591799  0.12516919  0.12516921
   0.25108024  0.25041689  0.00089096
   0.75003933  0.24996070  0.99872131
   0.49986386  0.50013614  0.00012742
   0.25010343  0.74989654  0.00028756
   0.00127869  0.24996070  0.24996074
   0.74960861  0.49431017  0.25039145
   0.49856995  0.74799198  0.25283267
   0.25108024  0.00089096  0.25041689
   0.99987258  0.50013614  0.50013621
   0.74716736  0.74799198  0.50143012
   0.49986386  0.00012742  0.50013614
   0.25200802  0.25283266  0.50143012
   0.99971244  0.74989654  0.74989654
   0.74958315  0.00089096  0.74891972
   0.99996706  0.49995985  0.00003294
   0.49856995  0.25283264  0.74799205
   0.75003933  0.99872131  0.24996074
   0.50568983  0.25039145  0.25039142
   0.25200799  0.50143005  0.25283271
   0.99910904  0.74891972  0.25041692
   0.74960861  0.25039140  0.49431023
   0.25038893  0.74961104  0.49945948
   0.99996706  0.00003294  0.49995985
   0.74716736  0.50143005  0.74799198
   0.50054066  0.74961104  0.74961104
   0.25010346  0.00028756  0.74989660
   0.99910904  0.25041689  0.74891972
   0.74958315  0.74891972  0.00089096
   0.50004015  0.00003294  0.00003294
   0.25038893  0.49945938  0.74961110
   0.63600277  0.36399723  0.36399723
 
 position of ions in cartesian coordinates  (Angst):
   0.00097391  7.13561419  7.13561419
   4.45155749  4.44502490  0.90797678
   2.68104335  6.24838406  0.89105725
   0.89978168  2.67997203  2.67997228
   6.22861132  4.44502490  2.68503109
   4.45661606  6.23680629  2.67997228
   2.69156344  0.90797660  2.68503061
   0.89275735  4.46098234  4.46098282
   6.24553132  6.24838406  4.45554499
   4.45155749  0.90797678  4.44502490
   2.61557801  2.64161536  4.52101033
   0.89256279  6.24402555  6.24402555
   6.24330751  0.89328071  6.23796359
   4.45661606  2.67997203  6.23680677
   6.25482879  2.67386203  0.88175966
   2.67560552  4.46098282  6.24383110
   2.61557801  4.52101033  2.64161560
   0.88550739  6.25108059  2.68344412
   6.22861180  2.68503061  4.44502490
   4.49497274  4.52100985  4.52101033
   2.67560552  6.24383015  4.46098282
   0.88820391  0.89105713  4.45554547
   6.24553132  4.45554451  6.24838454
   4.45314422  6.25108107  6.25108107
   2.68104335  0.89105713  6.24838406
   0.88550751  2.68344388  6.25108107
   6.24330751  6.23796312  0.89328095
   4.46272606  0.88175966  0.88175979
   2.69156344  2.68503061  0.90797678
   6.25482879  0.88175936  2.67386251
   0.88820379  4.45554499  0.89105725
   0.89862486  0.89328095  0.89328107
   1.79185627  1.78712217  0.00635839
   5.35272175  1.78386658  7.12746262
   3.56732244  3.56926565  0.00090937
   1.78488517  5.35170269  0.00205222
   0.00912547  1.78386658  1.78386682
   5.34964790  3.52768806  1.78694067
   3.55808835  5.33811067  1.80436266
   1.79185627  0.00635839  1.78712217
   7.13567872  3.56926565  3.56926613
   5.33222568  5.33811067  3.57850023
   3.56732244  0.00090937  3.56926565
   1.79847743  1.80436253  3.57850023
   7.13453588  5.35170269  5.35170269
   5.34946617  0.00635839  5.34473159
   7.13635299  3.56800755  0.00023510
   3.55808835  1.80436242  5.33811114
   5.35272175  7.12746262  1.78386682
   3.60890004  1.78694067  1.78694044
   1.79847719  3.57849975  1.80436289
   7.13022971  5.34473159  1.78712240
   5.34964790  1.78694032  3.52768854
   1.78692266  5.34966521  3.56443655
   7.13635299  0.00023510  3.56800755
   5.33222568  3.57849975  5.33811067
   3.57215251  5.34966521  5.34966521
   1.78488540  0.00205222  5.35170316
   7.13022971  1.78712217  5.34473159
   5.34946617  5.34473159  0.00635839
   3.56858055  0.00023510  0.00023510
   1.78692266  3.56443583  5.34966568
   4.53888977  2.59769833  2.59769833
 


--------------------------------------------------------------------------------------------------------


 k-point  1 :   0.0000 0.0000 0.0000  plane waves:    9171
 k-point  2 :   0.3333 0.0000 0.0000  plane waves:    9182
 k-point  3 :   0.3333 0.3333 0.0000  plane waves:    9212
 k-point  4 :  -0.3333 0.3333 0.0000  plane waves:    9212
 k-point  5 :   0.3333 0.3333 0.3333  plane waves:    9255
 k-point  6 :  -0.3333 0.3333 0.3333  plane waves:    9255

 maximum and minimum number of plane-waves per node :      4628     4580

 maximum number of plane-waves:      9255
 maximum index in each direction: 
   IXMAX=   13   IYMAX=   13   IZMAX=   13
   IXMIN=  -13   IYMIN=  -13   IZMIN=  -13


 parallel 3D FFT for wavefunctions:
    minimum data exchange during FFTs selected (reduces bandwidth)
 parallel 3D FFT for charge:
    minimum data exchange during FFTs selected (reduces bandwidth)


 total amount of memory used by VASP MPI-rank0    50117. kBytes
=======================================================================

   base      :      30000. kBytes
   nonl-proj :       8240. kBytes
   fftplans  :       2411. kBytes
   grid      :       3630. kBytes
   one-center:        196. kBytes
   wavefun   :       5640. kBytes
 
     INWAV:  cpu time    0.0000: real time    0.0000
 Broyden mixing: mesh for mixing (old mesh)
   NGX = 27   NGY = 27   NGZ = 27
  (NGX  = 80   NGY  = 80   NGZ  = 80)
  gives a total of  19683 points

 initial charge density was supplied:
 charge density of overlapping atoms calculated
 number of electron     253.0000000 magnetization      63.0000000
 keeping initial charge density in first step


--------------------------------------------------------------------------------------------------------


 Maximum index for augmentation-charges          777 (set IRDMAX)


--------------------------------------------------------------------------------------------------------


 First call to EWALD:  gamma=   0.248
 Maximum number of real-space cells 3x 3x 3
 Maximum number of reciprocal cells 3x 3x 3

    FEWALD:  cpu time    0.0035: real time    0.0035


--------------------------------------- Iteration      1(   1)  ---------------------------------------


    POTLOK:  cpu time    0.0212: real time    0.0277
    SETDIJ:  cpu time    0.0189: real time    0.0190
     EDDAV:  cpu time    0.7605: real time    0.7734
       DOS:  cpu time    0.0019: real time    0.0019
    --------------------------------------------
      LOOP:  cpu time    0.8025: real time    0.8221

 eigenvalue-minimisations  :  4608
 total energy-change (2. order) : 0.6733745E+03  (-0.1310045E+05)
 number of electron     253.0000000 magnetization      63.0000000
 augmentation part      253.0000000 magnetization      63.0000000

 Free energy of the ion-electron system (eV)
  ---------------------------------------------------
  alpha Z        PSCENC =       901.27874917
  Ewald energy   TEWEN  =    -10894.98612422
  -Hartree energ DENC   =      -661.72742795
  -exchange      EXHF   =         0.00000000
  -V(xc)+E(xc)   XCENC  =       878.94268152
  PAW double counting   =      6925.21173261    -6961.15079433
  entropy T*S    EENTRO =         0.00000000
  eigenvalues    EBANDS =      1098.06871938
  atomic energy  EATOM  =      9387.73699318
  Solvation  Ediel_sol  =         0.00000000
  ---------------------------------------------------
  free energy    TOTEN  =       673.37452936 eV

  energy without entropy =      673.37452936  energy(sigma->0) =      673.37452936


--------------------------------------------------------------------------------------------------------




--------------------------------------- Iteration      1(   2)  ---------------------------------------


     EDDAV:  cpu time    0.9293: real time    0.9408
       DOS:  cpu time    0.0003: real time    0.0003
    --------------------------------------------
      LOOP:  cpu time    0.9296: real time    0.9411

 eigenvalue-minimisations  :  6016
 total energy-change (2. order) :-0.1174875E+04  (-0.1116249E+04)
 number of electron     253.0000000 magnetization      63.0000000
 augmentation part      253.0000000 magnetization      63.0000000

 Free energy of the ion-electron system (eV)
  ---------------------------------------------------
  alpha Z        PSCENC =       901.27874917
  Ewald energy   TEWEN  =    -10894.98612422
  -Hartree energ DENC   =      -661.72742795
  -exchange      EXHF   =         0.00000000
  -V(xc)+E(xc)   XCENC  =       878.94268152
  PAW double counting   =      6925.21173261    -6961.15079433
  entropy T*S    EENTRO =         0.00000000
  eigenvalues    EBANDS =       -76.80598368
  atomic energy  EATOM  =      9387.73699318
  Solvation  Ediel_sol  =         0.00000000
  ---------------------------------------------------
  free energy    TOTEN  =      -501.50017370 eV

  energy without entropy =     -501.50017370  energy(sigma->0) =     -501.50017370


--------------------------------------------------------------------------------------------------------




--------------------------------------- Iteration      1(   3)  ---------------------------------------


     EDDAV:  cpu time    0.9711: real time    0.9758
       DOS:  cpu time    0.0004: real time    0.0004
    --------------------------------------------
      LOOP:  cpu time    0.9714: real time    0.9762

 eigenvalue-minimisations  :  6144
 total energy-change (2. order) :-0.4816510E+02  (-0.4780798E+02)
 number of electron     253.0000000 magnetization      63.0000000
 augmentation part      253.0000000 magnetization      63.0000000

 Free energy of the ion-electron system (eV)
  ---------------------------------------------------
  alpha Z        PSCENC =       901.27874917
  Ewald energy   TEWEN  =    -10894.98612422
  -Hartree energ DENC   =      -661.72742795
  -exchange      EXHF   =         0.00000000
  -V(xc)+E(xc)   XCENC  =       878.94268152
  PAW double counting   =      6925.21173261    -6961.15079433
  entropy T*S    EENTRO =         0.00000000
  eigenvalues    EBANDS =      -124.97108315
  atomic energy  EATOM  =      9387.73699318
  Solvation  Ediel_sol  =         0.00000000
  ---------------------------------------------------
  free energy    TOTEN  =      -549.66527317 eV

  energy without entropy =     -549.66527317  energy(sigma->0) =     -549.66527317


--------------------------------------------------------------------------------------------------------




--------------------------------------- Iteration      1(   4)  ---------------------------------------


     EDDAV:  cpu time    0.9553: real time    0.9597
       DOS:  cpu time    0.0004: real time    0.0003
    --------------------------------------------
      LOOP:  cpu time    0.9557: real time    0.9601

 eigenvalue-minimisations  :  6144
 total energy-change (2. order) :-0.5641248E+00  (-0.5627793E+00)
 number of electron     253.0000000 magnetization      63.0000000
 augmentation part      253.0000000 magnetization      63.0000000

 Free energy of the ion-electron system (eV)
  ---------------------------------------------------
  alpha Z        PSCENC =       901.27874917
  Ewald energy   TEWEN  =    -10894.98612422
  -Hartree energ DENC   =      -661.72742795
  -exchange      EXHF   =         0.00000000
  -V(xc)+E(xc)   XCENC  =       878.94268152
  PAW double counting   =      6925.21173261    -6961.15079433
  entropy T*S    EENTRO =         0.00000000
  eigenvalues    EBANDS =      -125.53520796
  atomic energy  EATOM  =      9387.73699318
  Solvation  Ediel_sol  =         0.00000000
  ---------------------------------------------------
  free energy    TOTEN  =      -550.22939798 eV

  energy without entropy =     -550.22939798  energy(sigma->0) =     -550.22939798


--------------------------------------------------------------------------------------------------------




--------------------------------------- Iteration      1(   5)  ---------------------------------------


     EDDAV:  cpu time    0.8977: real time    0.9023
       DOS:  cpu time    0.0003: real time    0.0003
    CHARGE:  cpu time    0.1024: real time    0.1026
    MIXING:  cpu time    0.0059: real time    0.0059
    --------------------------------------------
      LOOP:  cpu time    1.0062: real time    1.0111

 eigenvalue-minimisations  :  5888
 total energy-change (2. order) :-0.1053251E-01  (-0.1052743E-01)
 number of electron     253.9999996 magnetization      20.3816715
 augmentation part        6.4524661 magnetization      18.4780537

 Broyden mixing:
  rms(total) = 0.48933E+01    rms(broyden)= 0.48926E+01
  rms(prec ) = 0.57003E+01
  weight for this iteration     100.00

 Free energy of the ion-electron system (eV)
  ---------------------------------------------------
  alpha Z        PSCENC =       901.27874917
  Ewald energy   TEWEN  =    -10894.98612422
  -Hartree energ DENC   =      -661.72742795
  -exchange      EXHF   =         0.00000000
  -V(xc)+E(xc)   XCENC  =       878.94268152
  PAW double counting   =      6925.21173261    -6961.15079433
  entropy T*S    EENTRO =         0.00000000
  eigenvalues    EBANDS =      -125.54574047
  atomic energy  EATOM  =      9387.73699318
  Solvation  Ediel_sol  =         0.00000000
  ---------------------------------------------------
  free energy    TOTEN  =      -550.23993049 eV

  energy without entropy =     -550.23993049  energy(sigma->0) =     -550.23993049


--------------------------------------------------------------------------------------------------------




--------------------------------------- Iteration      1(   6)  ---------------------------------------


    POTLOK:  cpu time    0.0138: real time    0.0156
    SETDIJ:  cpu time    0.0109: real time    0.0109
     EDDAV:  cpu time    0.9433: real time    0.9461
       DOS:  cpu time    0.0003: real time    0.0003
    CHARGE:  cpu time    0.0997: real time    0.0999
    MIXING:  cpu time    0.0122: real time    0.0122
    --------------------------------------------
      LOOP:  cpu time    1.0802: real time    1.0851

 eigenvalue-minimisations  :  5760
 total energy-change (2. order) :-0.3381297E+01  (-0.2364065E+01)
 number of electron     253.9999996 magnetization       3.4685456
 augmentation part        6.2817317 magnetization       1.4798357

 Broyden mixing:
  rms(total) = 0.22032E+01    rms(broyden)= 0.22032E+01
  rms(prec ) = 0.27014E+01
  weight for this iteration     100.00

 eigenvalues of (default mixing * dielectric matrix)
  average eigenvalue GAMMA=   1.0022
  1.0022

 Free energy of the ion-electron system (eV)
  ---------------------------------------------------
  alpha Z        PSCENC =       901.27874917
  Ewald energy   TEWEN  =    -10894.98612422
  -Hartree energ DENC   =      -783.89487585
  -exchange      EXHF   =         0.00000000
  -V(xc)+E(xc)   XCENC  =       886.04450004
  PAW double counting   =     11947.03432236   -11987.27990628
  entropy T*S    EENTRO =         0.00000000
  eigenvalues    EBANDS =        -9.55488627
  atomic energy  EATOM  =      9387.73699318
  Solvation  Ediel_sol  =         0.00000000
  ---------------------------------------------------
  free energy    TOTEN  =      -553.62122787 eV

  energy without entropy =     -553.62122787  energy(sigma->0) =     -553.62122787


--------------------------------------------------------------------------------------------------------




--------------------------------------- Iteration      1(   7)  ---------------------------------------


    POTLOK:  cpu time    0.0157: real time    0.0169
    SETDIJ:  cpu time    0.0107: real time    0.0107
     EDDAV:  cpu time    0.8934: real time    0.8959
       DOS:  cpu time    0.0003: real time    0.0003
    CHARGE:  cpu time    0.0990: real time    0.0993
    MIXING:  cpu time    0.0027: real time    0.0027
    --------------------------------------------
      LOOP:  cpu time    1.0219: real time    1.0259

 eigenvalue-minimisations  :  5536
 total energy-change (2. order) :-0.1674779E+01  (-0.1871860E+01)
 number of electron     253.9999996 magnetization      -0.4587512
 augmentation part        6.1656699 magnetization      -2.3402140

 Broyden mixing:
  rms(total) = 0.10130E+01    rms(broyden)= 0.10130E+01
  rms(prec ) = 0.11814E+01
  weight for this iteration     100.00

 eigenvalues of (default mixing * dielectric matrix)
  average eigenvalue GAMMA=   1.2157
  0.8026  1.6288

 Free energy of the ion-electron system (eV)
  ---------------------------------------------------
  alpha Z        PSCENC =       901.27874917
  Ewald energy   TEWEN  =    -10894.98612422
  -Hartree energ DENC   =      -877.73648301
  -exchange      EXHF   =         0.00000000
  -V(xc)+E(xc)   XCENC  =       892.07560885
  PAW double counting   =     17358.99564972   -17401.56575634
  entropy T*S    EENTRO =         0.00000000
  eigenvalues    EBANDS =        78.90535578
  atomic energy  EATOM  =      9387.73699318
  Solvation  Ediel_sol  =         0.00000000
  ---------------------------------------------------
  free energy    TOTEN  =      -555.29600687 eV

  energy without entropy =     -555.29600687  energy(sigma->0) =     -555.29600687


--------------------------------------------------------------------------------------------------------




--------------------------------------- Iteration      1(   8)  ---------------------------------------


    POTLOK:  cpu time    0.0127: real time    0.0144
    SETDIJ:  cpu time    0.0108: real time    0.0108
     EDDAV:  cpu time    0.9059: real time    0.9084
       DOS:  cpu time    0.0003: real time    0.0003
    CHARGE:  cpu time    0.0978: real time    0.0980
    MIXING:  cpu time    0.0036: real time    0.0036
    --------------------------------------------
      LOOP:  cpu time    1.0311: real time    1.0357

 eigenvalue-minimisations  :  5792
 total energy-change (2. order) : 0.2895206E+00  (-0.1844422E+00)
 number of electron     253.9999996 magnetization       1.1467692
 augmentation part        6.1194273 magnetization      -0.7321002

 Broyden mixing:
  rms(total) = 0.48915E+00    rms(broyden)= 0.48913E+00
  rms(prec ) = 0.51653E+00
  weight for this iteration     100.00

 eigenvalues of (default mixing * dielectric matrix)
  average eigenvalue GAMMA=   1.1853
  1.8931  0.9455  0.7172

 Free energy of the ion-electron system (eV)
  ---------------------------------------------------
  alpha Z        PSCENC =       901.27874917
  Ewald energy   TEWEN  =    -10894.98612422
  -Hartree energ DENC   =      -926.07397316
  -exchange      EXHF   =         0.00000000
  -V(xc)+E(xc)   XCENC  =       896.49072357
  PAW double counting   =     21362.29560868   -21405.77230797
  entropy T*S    EENTRO =         0.00000000
  eigenvalues    EBANDS =       124.02384447
  atomic energy  EATOM  =      9387.73699318
  Solvation  Ediel_sol  =         0.00000000
  ---------------------------------------------------
  free energy    TOTEN  =      -555.00648629 eV

  energy without entropy =     -555.00648629  energy(sigma->0) =     -555.00648629


--------------------------------------------------------------------------------------------------------




--------------------------------------- Iteration      1(   9)  ---------------------------------------


    POTLOK:  cpu time    0.0128: real time    0.0146
    SETDIJ:  cpu time    0.0107: real time    0.0107
     EDDAV:  cpu time    0.8981: real time    0.9007
       DOS:  cpu time    0.0003: real time    0.0003
    CHARGE:  cpu time    0.0971: real time    0.0973
    MIXING:  cpu time    0.0041: real time    0.0041
    --------------------------------------------
      LOOP:  cpu time    1.0232: real time    1.0278

 eigenvalue-minimisations  :  5760
 total energy-change (2. order) :-0.9098562E-01  (-0.1893737E-01)
 number of electron     253.9999996 magnetization       2.1849634
 augmentation part        6.1101091 magnetization       0.2867952

 Broyden mixing:
  rms(total) = 0.25774E+00    rms(broyden)= 0.25773E+00
  rms(prec ) = 0.26467E+00
  weight for this iteration     100.00

 eigenvalues of (default mixing * dielectric matrix)
  average eigenvalue GAMMA=   1.3372
  2.5204  1.4275  0.8244  0.5763

 Free energy of the ion-electron system (eV)
  ---------------------------------------------------
  alpha Z        PSCENC =       901.27874917
  Ewald energy   TEWEN  =    -10894.98612422
  -Hartree energ DENC   =      -937.68932568
  -exchange      EXHF   =         0.00000000
  -V(xc)+E(xc)   XCENC  =       897.62277530
  PAW double counting   =     23218.39919975   -23261.81038052
  entropy T*S    EENTRO =         0.00000000
  eigenvalues    EBANDS =       134.35064111
  atomic energy  EATOM  =      9387.73699318
  Solvation  Ediel_sol  =         0.00000000
  ---------------------------------------------------
  free energy    TOTEN  =      -555.09747191 eV

  energy without entropy =     -555.09747191  energy(sigma->0) =     -555.09747191


--------------------------------------------------------------------------------------------------------




--------------------------------------- Iteration      1(  10)  ---------------------------------------


    POTLOK:  cpu time    0.0125: real time    0.0142
    SETDIJ:  cpu time    0.0107: real time    0.0108
     EDDAV:  cpu time    0.9257: real time    0.9284
       DOS:  cpu time    0.0003: real time    0.0003
    CHARGE:  cpu time    0.0990: real time    0.0993
    MIXING:  cpu time    0.0027: real time    0.0027
    --------------------------------------------
      LOOP:  cpu time    1.0510: real time    1.0556

 eigenvalue-minimisations  :  5856
 total energy-change (2. order) :-0.7986787E-02  (-0.1660417E-02)
 number of electron     253.9999996 magnetization       2.1029394
 augmentation part        6.1082351 magnetization       0.2062208

 Broyden mixing:
  rms(total) = 0.50301E-01    rms(broyden)= 0.50300E-01
  rms(prec ) = 0.58184E-01
  weight for this iteration     100.00

 eigenvalues of (default mixing * dielectric matrix)
  average eigenvalue GAMMA=   1.2823
  2.5909  1.4993  0.9390  0.7884  0.5937

 Free energy of the ion-electron system (eV)
  ---------------------------------------------------
  alpha Z        PSCENC =       901.27874917
  Ewald energy   TEWEN  =    -10894.98612422
  -Hartree energ DENC   =      -941.05297321
  -exchange      EXHF   =         0.00000000
  -V(xc)+E(xc)   XCENC  =       897.98990433
  PAW double counting   =     24170.06433282   -24213.31914597
  entropy T*S    EENTRO =         0.00000000
  eigenvalues    EBANDS =       137.18280520
  atomic energy  EATOM  =      9387.73699318
  Solvation  Ediel_sol  =         0.00000000
  ---------------------------------------------------
  free energy    TOTEN  =      -555.10545869 eV

  energy without entropy =     -555.10545869  energy(sigma->0) =     -555.10545869


--------------------------------------------------------------------------------------------------------




--------------------------------------- Iteration      1(  11)  ---------------------------------------


    POTLOK:  cpu time    0.0123: real time    0.0141
    SETDIJ:  cpu time    0.0105: real time    0.0105
     EDDAV:  cpu time    0.8993: real time    0.9027
       DOS:  cpu time    0.0003: real time    0.0003
    CHARGE:  cpu time    0.0988: real time    0.0990
    MIXING:  cpu time    0.0037: real time    0.0037
    --------------------------------------------
      LOOP:  cpu time    1.0249: real time    1.0303

 eigenvalue-minimisations  :  5632
 total energy-change (2. order) :-0.9062087E-03  (-0.7419219E-03)
 number of electron     253.9999996 magnetization       2.0150108
 augmentation part        6.1100579 magnetization       0.1203838

 Broyden mixing:
  rms(total) = 0.20784E-01    rms(broyden)= 0.20783E-01
  rms(prec ) = 0.23817E-01
  weight for this iteration     100.00

 eigenvalues of (default mixing * dielectric matrix)
  average eigenvalue GAMMA=   1.3100
  2.4904  1.7795  1.3912  0.8604  0.7358  0.6024

 Free energy of the ion-electron system (eV)
  ---------------------------------------------------
  alpha Z        PSCENC =       901.27874917
  Ewald energy   TEWEN  =    -10894.98612422
  -Hartree energ DENC   =      -939.79372073
  -exchange      EXHF   =         0.00000000
  -V(xc)+E(xc)   XCENC  =       897.89008548
  PAW double counting   =     24251.65171027   -24294.79777817
  entropy T*S    EENTRO =         0.00000000
  eigenvalues    EBANDS =       135.91372011
  atomic energy  EATOM  =      9387.73699318
  Solvation  Ediel_sol  =         0.00000000
  ---------------------------------------------------
  free energy    TOTEN  =      -555.10636490 eV

  energy without entropy =     -555.10636490  energy(sigma->0) =     -555.10636490


--------------------------------------------------------------------------------------------------------




--------------------------------------- Iteration      1(  12)  ---------------------------------------


    POTLOK:  cpu time    0.0156: real time    0.0174
    SETDIJ:  cpu time    0.0104: real time    0.0105
     EDDAV:  cpu time    0.9148: real time    0.9174
       DOS:  cpu time    0.0003: real time    0.0003
    CHARGE:  cpu time    0.0974: real time    0.0977
    MIXING:  cpu time    0.0043: real time    0.0043
    --------------------------------------------
      LOOP:  cpu time    1.0428: real time    1.0476

 eigenvalue-minimisations  :  5888
 total energy-change (2. order) :-0.5716162E-03  (-0.1360649E-03)
 number of electron     253.9999996 magnetization       2.0010062
 augmentation part        6.1112391 magnetization       0.1057820

 Broyden mixing:
  rms(total) = 0.57872E-02    rms(broyden)= 0.57863E-02
  rms(prec ) = 0.68840E-02
  weight for this iteration     100.00

 eigenvalues of (default mixing * dielectric matrix)
  average eigenvalue GAMMA=   1.2824
  2.4538  1.9975  1.4237  0.9668  0.8172  0.6042  0.7134

 Free energy of the ion-electron system (eV)
  ---------------------------------------------------
  alpha Z        PSCENC =       901.27874917
  Ewald energy   TEWEN  =    -10894.98612422
  -Hartree energ DENC   =      -939.16090844
  -exchange      EXHF   =         0.00000000
  -V(xc)+E(xc)   XCENC  =       897.83878994
  PAW double counting   =     24270.25314781   -24313.34755246
  entropy T*S    EENTRO =         0.00000000
  eigenvalues    EBANDS =       135.27996851
  atomic energy  EATOM  =      9387.73699318
  Solvation  Ediel_sol  =         0.00000000
  ---------------------------------------------------
  free energy    TOTEN  =      -555.10693652 eV

  energy without entropy =     -555.10693652  energy(sigma->0) =     -555.10693652


--------------------------------------------------------------------------------------------------------




--------------------------------------- Iteration      1(  13)  ---------------------------------------


    POTLOK:  cpu time    0.0125: real time    0.0144
    SETDIJ:  cpu time    0.0100: real time    0.0100
     EDDAV:  cpu time    0.9046: real time    0.9071
       DOS:  cpu time    0.0003: real time    0.0003
    CHARGE:  cpu time    0.1004: real time    0.1006
    MIXING:  cpu time    0.0024: real time    0.0024
    --------------------------------------------
      LOOP:  cpu time    1.0302: real time    1.0349

 eigenvalue-minimisations  :  5696
 total energy-change (2. order) :-0.1362393E-03  (-0.1792437E-04)
 number of electron     253.9999996 magnetization       1.9982043
 augmentation part        6.1114620 magnetization       0.1034855

 Broyden mixing:
  rms(total) = 0.29925E-02    rms(broyden)= 0.29922E-02
  rms(prec ) = 0.35242E-02
  weight for this iteration     100.00

 eigenvalues of (default mixing * dielectric matrix)
  average eigenvalue GAMMA=   1.2683
  2.4120  2.1489  1.4510  1.2143  0.8583  0.6115  0.7689  0.6815

 Free energy of the ion-electron system (eV)
  ---------------------------------------------------
  alpha Z        PSCENC =       901.27874917
  Ewald energy   TEWEN  =    -10894.98612422
  -Hartree energ DENC   =      -939.13719605
  -exchange      EXHF   =         0.00000000
  -V(xc)+E(xc)   XCENC  =       897.83834642
  PAW double counting   =     24272.41475803   -24315.49854177
  entropy T*S    EENTRO =         0.00000000
  eigenvalues    EBANDS =       135.24594248
  atomic energy  EATOM  =      9387.73699318
  Solvation  Ediel_sol  =         0.00000000
  ---------------------------------------------------
  free energy    TOTEN  =      -555.10707276 eV

  energy without entropy =     -555.10707276  energy(sigma->0) =     -555.10707276


--------------------------------------------------------------------------------------------------------




--------------------------------------- Iteration      1(  14)  ---------------------------------------


    POTLOK:  cpu time    0.0131: real time    0.0151
    SETDIJ:  cpu time    0.0104: real time    0.0104
     EDDAV:  cpu time    0.9185: real time    0.9212
       DOS:  cpu time    0.0003: real time    0.0003
    CHARGE:  cpu time    0.0980: real time    0.0982
    MIXING:  cpu time    0.0032: real time    0.0032
    --------------------------------------------
      LOOP:  cpu time    1.0434: real time    1.0484

 eigenvalue-minimisations  :  5760
 total energy-change (2. order) :-0.3019741E-04  (-0.2042633E-05)
 number of electron     253.9999996 magnetization       1.9983442
 augmentation part        6.1114710 magnetization       0.1034480

 Broyden mixing:
  rms(total) = 0.16417E-02    rms(broyden)= 0.16416E-02
  rms(prec ) = 0.19481E-02
  weight for this iteration     100.00

 eigenvalues of (default mixing * dielectric matrix)
  average eigenvalue GAMMA=   1.3103
  2.3869  2.3869  1.7509  1.4087  1.0166  0.8249  0.7468  0.6199  0.6509

 Free energy of the ion-electron system (eV)
  ---------------------------------------------------
  alpha Z        PSCENC =       901.27874917
  Ewald energy   TEWEN  =    -10894.98612422
  -Hartree energ DENC   =      -939.17346252
  -exchange      EXHF   =         0.00000000
  -V(xc)+E(xc)   XCENC  =       897.84194864
  PAW double counting   =     24267.39102709   -24310.47323404
  entropy T*S    EENTRO =         0.00000000
  eigenvalues    EBANDS =       135.27699975
  atomic energy  EATOM  =      9387.73699318
  Solvation  Ediel_sol  =         0.00000000
  ---------------------------------------------------
  free energy    TOTEN  =      -555.10710295 eV

  energy without entropy =     -555.10710295  energy(sigma->0) =     -555.10710295


--------------------------------------------------------------------------------------------------------




--------------------------------------- Iteration      1(  15)  ---------------------------------------


    POTLOK:  cpu time    0.0140: real time    0.0156
    SETDIJ:  cpu time    0.0106: real time    0.0107
     EDDAV:  cpu time    0.8790: real time    0.8814
       DOS:  cpu time    0.0003: real time    0.0003
    CHARGE:  cpu time    0.0999: real time    0.1002
    MIXING:  cpu time    0.0024: real time    0.0024
    --------------------------------------------
      LOOP:  cpu time    1.0062: real time    1.0105

 eigenvalue-minimisations  :  5536
 total energy-change (2. order) :-0.1234557E-04  (-0.1027063E-05)
 number of electron     253.9999996 magnetization       1.9994188
 augmentation part        6.1114632 magnetization       0.1045899

 Broyden mixing:
  rms(total) = 0.56842E-03    rms(broyden)= 0.56826E-03
  rms(prec ) = 0.68597E-03
  weight for this iteration     100.00

 eigenvalues of (default mixing * dielectric matrix)
  average eigenvalue GAMMA=   1.3196
  2.5704  2.5704  1.9145  1.4164  1.0694  0.8834  0.8180  0.7144  0.6196  0.6196

 Free energy of the ion-electron system (eV)
  ---------------------------------------------------
  alpha Z        PSCENC =       901.27874917
  Ewald energy   TEWEN  =    -10894.98612422
  -Hartree energ DENC   =      -939.22324504
  -exchange      EXHF   =         0.00000000
  -V(xc)+E(xc)   XCENC  =       897.84677449
  PAW double counting   =     24263.16043565   -24306.24181372
  entropy T*S    EENTRO =         0.00000000
  eigenvalues    EBANDS =       135.32111521
  atomic energy  EATOM  =      9387.73699318
  Solvation  Ediel_sol  =         0.00000000
  ---------------------------------------------------
  free energy    TOTEN  =      -555.10711530 eV

  energy without entropy =     -555.10711530  energy(sigma->0) =     -555.10711530


--------------------------------------------------------------------------------------------------------




--------------------------------------- Iteration      1(  16)  ---------------------------------------


    POTLOK:  cpu time    0.0121: real time    0.0138
    SETDIJ:  cpu time    0.0113: real time    0.0113
     EDDAV:  cpu time    0.9826: real time    0.9867
       DOS:  cpu time    0.0003: real time    0.0003
    CHARGE:  cpu time    0.1003: real time    0.1006
    MIXING:  cpu time    0.0039: real time    0.0039
    --------------------------------------------
      LOOP:  cpu time    1.1104: real time    1.1165

 eigenvalue-minimisations  :  6208
 total energy-change (2. order) :-0.7355466E-06  (-0.1133684E-06)
 number of electron     253.9999996 magnetization       1.9998532
 augmentation part        6.1114678 magnetization       0.1050187

 Broyden mixing:
  rms(total) = 0.20040E-03    rms(broyden)= 0.20001E-03
  rms(prec ) = 0.23642E-03
  weight for this iteration     100.00

 eigenvalues of (default mixing * dielectric matrix)
  average eigenvalue GAMMA=   1.3067
  2.7824  2.4908  1.9775  1.4243  1.0671  1.0671  0.8583  0.7655  0.6945  0.6230
  0.6230

 Free energy of the ion-electron system (eV)
  ---------------------------------------------------
  alpha Z        PSCENC =       901.27874917
  Ewald energy   TEWEN  =    -10894.98612422
  -Hartree energ DENC   =      -939.24294018
  -exchange      EXHF   =         0.00000000
  -V(xc)+E(xc)   XCENC  =       897.84871881
  PAW double counting   =     24262.56956154   -24305.65071321
  entropy T*S    EENTRO =         0.00000000
  eigenvalues    EBANDS =       135.33863889
  atomic energy  EATOM  =      9387.73699318
  Solvation  Ediel_sol  =         0.00000000
  ---------------------------------------------------
  free energy    TOTEN  =      -555.10711604 eV

  energy without entropy =     -555.10711604  energy(sigma->0) =     -555.10711604


--------------------------------------------------------------------------------------------------------




--------------------------------------- Iteration      1(  17)  ---------------------------------------


    POTLOK:  cpu time    0.0136: real time    0.0152
    SETDIJ:  cpu time    0.0106: real time    0.0107
     EDDAV:  cpu time    0.9853: real time    0.9882
       DOS:  cpu time    0.0003: real time    0.0003
    CHARGE:  cpu time    0.0976: real time    0.0979
    MIXING:  cpu time    0.0047: real time    0.0047
    --------------------------------------------
      LOOP:  cpu time    1.1121: real time    1.1169

 eigenvalue-minimisations  :  6400
 total energy-change (2. order) :-0.4020512E-07  (-0.2336327E-07)
 number of electron     253.9999996 magnetization       1.9999526
 augmentation part        6.1114670 magnetization       0.1051067

 Broyden mixing:
  rms(total) = 0.82554E-04    rms(broyden)= 0.81596E-04
  rms(prec ) = 0.93761E-04
  weight for this iteration     100.00

 eigenvalues of (default mixing * dielectric matrix)
  average eigenvalue GAMMA=   1.2989
  2.8295  2.4866  1.9986  1.4244  1.1631  1.1631  1.0234  0.8291  0.7528  0.6734
  0.6180  0.6244

 Free energy of the ion-electron system (eV)
  ---------------------------------------------------
  alpha Z        PSCENC =       901.27874917
  Ewald energy   TEWEN  =    -10894.98612422
  -Hartree energ DENC   =      -939.24887381
  -exchange      EXHF   =         0.00000000
  -V(xc)+E(xc)   XCENC  =       897.84927816
  PAW double counting   =     24262.32256845   -24305.40382002
  entropy T*S    EENTRO =         0.00000000
  eigenvalues    EBANDS =       135.34411302
  atomic energy  EATOM  =      9387.73699318
  Solvation  Ediel_sol  =         0.00000000
  ---------------------------------------------------
  free energy    TOTEN  =      -555.10711608 eV

  energy without entropy =     -555.10711608  energy(sigma->0) =     -555.10711608


--------------------------------------------------------------------------------------------------------




--------------------------------------- Iteration      1(  18)  ---------------------------------------


    POTLOK:  cpu time    0.0121: real time    0.0140
    SETDIJ:  cpu time    0.0103: real time    0.0103
     EDDAV:  cpu time    0.9166: real time    0.9192
       DOS:  cpu time    0.0003: real time    0.0003
    CHARGE:  cpu time    0.0987: real time    0.0989
    MIXING:  cpu time    0.0039: real time    0.0039
    --------------------------------------------
      LOOP:  cpu time    1.0418: real time    1.0466

 eigenvalue-minimisations  :  5888
 total energy-change (2. order) :-0.5387301E-07  (-0.3819399E-08)
 number of electron     253.9999996 magnetization       2.0000060
 augmentation part        6.1114642 magnetization       0.1051607

 Broyden mixing:
  rms(total) = 0.31238E-04    rms(broyden)= 0.28632E-04
  rms(prec ) = 0.31114E-04
  weight for this iteration     100.00

 eigenvalues of (default mixing * dielectric matrix)
  average eigenvalue GAMMA=   1.2820
  2.8504  2.4744  1.9999  1.4425  1.3759  1.0911  1.0911  0.8813  0.8157  0.7431
  0.6546  0.6109  0.6348

 Free energy of the ion-electron system (eV)
  ---------------------------------------------------
  alpha Z        PSCENC =       901.27874917
  Ewald energy   TEWEN  =    -10894.98612422
  -Hartree energ DENC   =      -939.25011142
  -exchange      EXHF   =         0.00000000
  -V(xc)+E(xc)   XCENC  =       897.84938079
  PAW double counting   =     24262.16475131   -24305.24604997
  entropy T*S    EENTRO =         0.00000000
  eigenvalues    EBANDS =       135.34529503
  atomic energy  EATOM  =      9387.73699318
  Solvation  Ediel_sol  =         0.00000000
  ---------------------------------------------------
  free energy    TOTEN  =      -555.10711613 eV

  energy without entropy =     -555.10711613  energy(sigma->0) =     -555.10711613


--------------------------------------------------------------------------------------------------------




--------------------------------------- Iteration      1(  19)  ---------------------------------------


    POTLOK:  cpu time    0.0124: real time    0.0140
    SETDIJ:  cpu time    0.0105: real time    0.0106
     EDDAV:  cpu time    0.6468: real time    0.6486
       DOS:  cpu time    0.0003: real time    0.0003
    --------------------------------------------
      LOOP:  cpu time    0.6700: real time    0.6734

 eigenvalue-minimisations  :  3456
 total energy-change (2. order) : 0.6184564E-09  (-0.3471855E-09)
 number of electron     253.9999996 magnetization       2.0000060
 augmentation part        6.1114642 magnetization       0.1051607

 Free energy of the ion-electron system (eV)
  ---------------------------------------------------
  alpha Z        PSCENC =       901.27874917
  Ewald energy   TEWEN  =    -10894.98612422
  -Hartree energ DENC   =      -939.25038304
  -exchange      EXHF   =         0.00000000
  -V(xc)+E(xc)   XCENC  =       897.84940531
  PAW double counting   =     24262.23203304   -24305.31331998
  entropy T*S    EENTRO =         0.00000000
  eigenvalues    EBANDS =       135.34553041
  atomic energy  EATOM  =      9387.73699318
  Solvation  Ediel_sol  =         0.00000000
  ---------------------------------------------------
  free energy    TOTEN  =      -555.10711613 eV

  energy without entropy =     -555.10711613  energy(sigma->0) =     -555.10711613


--------------------------------------------------------------------------------------------------------




 average (electrostatic) potential at core
  the test charge radii are     0.6991  0.7089
  (the norm of the test charge is              1.0000)
       1 -45.9249       2 -45.7986       3 -45.7254       4 -45.6620       5 -45.7986
       6 -45.6620       7 -45.7985       8 -45.6271       9 -45.7255      10 -45.7986
      11 -44.2157      12 -45.8428      13 -45.8836      14 -45.6620      15 -45.7558
      16 -45.6271      17 -44.2157      18 -45.7347      19 -45.7986      20 -44.2157
      21 -45.6271      22 -45.7255      23 -45.7255      24 -45.7347      25 -45.7255
      26 -45.7347      27 -45.8836      28 -45.7558      29 -45.7986      30 -45.7558
      31 -45.7255      32 -45.8836      33 -45.8578      34 -45.8360      35 -45.7550
      36 -45.7723      37 -45.8360      38 -46.3654      39 -45.5391      40 -45.8577
      41 -45.7550      42 -45.5391      43 -45.7550      44 -45.5391      45 -45.7723
      46 -45.8578      47 -45.7200      48 -45.5391      49 -45.8359      50 -46.3654
      51 -45.5391      52 -45.8578      53 -46.3654      54 -45.4488      55 -45.7200
      56 -45.5391      57 -45.4488      58 -45.7723      59 -45.8578      60 -45.8577
      61 -45.7200      62 -45.4488      63 -59.7239
 
 
 
 E-fermi :  11.1166     XC(G=0): -13.1745     alpha+bet :-17.3348


 spin component 1

 k-point     1 :       0.0000    0.0000    0.0000
  band No.  band energies     occupation 
      1     -12.1378      1.00000
      2     -10.5626      1.00000
      3      -9.8394      1.00000
      4      -9.8394      1.00000
      5      -9.7329      1.00000
      6      -9.7329      1.00000
      7      -9.4594      1.00000
      8      -8.5104      1.00000
      9      -7.6941      1.00000
     10      -7.6941      1.00000
     11      -7.6694      1.00000
     12      -7.6694      1.00000
     13      -7.5970      1.00000
     14      -7.5970      1.00000
     15      -7.5647      1.00000
     16      -7.5061      1.00000
     17      -7.4431      1.00000
     18      -7.4431      1.00000
     19      -6.9357      1.00000
     20      -6.5344      1.00000
     21      -6.2527      1.00000
     22      -6.2526      1.00000
     23      -5.6872      1.00000
     24      -3.9339      1.00000
     25      -3.9339      1.00000
     26      -3.9075      1.00000
     27      -3.8691      1.00000
     28      -3.6726      1.00000
     29      -3.3905      1.00000
     30      -3.3905      1.00000
     31      -3.2868      1.00000
     32      -3.2868      1.00000
     33      -3.2082      1.00000
     34      -2.9761      1.00000
     35      -2.7494      1.00000
     36      -2.7494      1.00000
     37      -2.5912      1.00000
     38      -2.5912      1.00000
     39      -2.5668      1.00000
     40      -2.5453      1.00000
     41      -2.5453      1.00000
     42      -2.5070      1.00000
     43      -2.2772      1.00000
     44      -2.2772      1.00000
     45      -0.5584      1.00000
     46       0.3336      1.00000
     47       0.3337      1.00000
     48       0.4622      1.00000
     49       0.6645      1.00000
     50       0.6692      1.00000
     51       0.6692      1.00000
     52       0.6698      1.00000
     53       0.7035      1.00000
     54       0.7035      1.00000
     55       0.8480      1.00000
     56       0.8480      1.00000
     57       0.9207      1.00000
     58       0.9207      1.00000
     59       1.0401      1.00000
     60       1.0877      1.00000
     61       1.0950      1.00000
     62       1.0950      1.00000
     63       1.0987      1.00000
     64       1.1825      1.00000
     65       1.1825      1.00000
     66       1.3181      1.00000
     67       1.3741      1.00000
     68       1.3741      1.00000
     69       1.4788      1.00000
     70       1.6558      1.00000
     71       1.6558      1.00000
     72       1.7218      1.00000
     73       1.7798      1.00000
     74       1.7798      1.00000
     75       1.8192      1.00000
     76       1.8451      1.00000
     77       1.8451      1.00000
     78       2.4375      1.00000
     79       2.4375      1.00000
     80       2.4687      1.00000
     81       3.0480      1.00000
     82       3.0480      1.00000
     83       3.1665      1.00000
     84       3.4267      1.00000
     85       3.4469      1.00000
     86       3.4469      1.00000
     87       3.8618      1.00000
     88       4.7436      1.00000
     89       4.7436      1.00000
     90       4.8194      1.00000
     91       4.9000      1.00000
     92       4.9000      1.00000
     93       5.0789      1.00000
     94       5.0789      1.00000
     95       5.2469      1.00000
     96       5.2488      1.00000
     97       5.2560      1.00000
     98       5.2560      1.00000
     99       5.3006      1.00000
    100       5.3006      1.00000
    101       5.3309      1.00000
    102       5.6956      1.00000
    103       5.6956      1.00000
    104       5.7050      1.00000
    105       6.1362      1.00000
    106       6.1362      1.00000
    107       6.3433      1.00000
    108       6.3433      1.00000
    109       6.3437      1.00000
    110       6.3644      1.00000
    111       6.3896      1.00000
    112       6.4167      1.00000
    113       6.4167      1.00000
    114       6.4220      1.00000
    115       6.4361      1.00000
    116       6.4361      1.00000
    117       6.5493      1.00000
    118       6.5494      1.00000
    119       6.6671      1.00000
    120       6.6671      1.00000
    121       6.7382      1.00000
    122       7.2557      1.00000
    123       8.6033      1.00000
    124       8.8547      1.00000
    125       8.8547      1.00000
    126      10.1833      1.00000
    127      11.2294      1.00000
    128      11.2294      1.00000
    129      13.7459      0.00000
    130      13.7704      0.00000
    131      13.7704      0.00000
    132      13.9364      0.00000
    133      13.9420      0.00000
    134      13.9420      0.00000
    135      14.2419      0.00000
    136      14.2955      0.00000
    137      14.2956      0.00000
    138      14.3842      0.00000
    139      14.3842      0.00000
    140      14.7216      0.00000
    141      15.3135      0.00000
    142      15.3135      0.00000
    143      15.3564      0.00000
    144      17.0651      0.00000
    145      17.2032      0.00000
    146      17.2032      0.00000
    147      17.2545      0.00000
    148      17.3345      0.00000
    149      17.3345      0.00000
    150      17.4168      0.00000
    151      17.4168      0.00000
    152      17.4510      0.00000
    153      17.4548      0.00000
    154      17.4548      0.00000
    155      17.5325      0.00000
    156      17.7743      0.00000
    157      17.8206      0.00000
    158      17.8206      0.00000
    159      17.9042      0.00000
    160      18.0717      0.00000
    161      18.0717      0.00000
    162      18.1695      0.00000
    163      18.1695      0.00000
    164      18.3275      0.00000
    165      18.3768      0.00000
    166      18.3768      0.00000
    167      19.0181      0.00000
    168      19.1603      0.00000
    169      19.1604      0.00000
    170      19.2668      0.00000
    171      19.3030      0.00000
    172      19.3137      0.00000
    173      19.3664      0.00000
    174      19.3664      0.00000
    175      19.4304      0.00000
    176      19.4304      0.00000
    177      19.4883      0.00000
    178      19.5372      0.00000
    179      19.5372      0.00000
    180      19.7007      0.00000
    181      19.7007      0.00000
    182      19.8100      0.00000
    183      19.8100      0.00000
    184      19.8639      0.00000
    185      19.9208      0.00000
    186      20.0064      0.00000
    187      20.0064      0.00000
    188      20.0838      0.00000
    189      20.1143      0.00000
    190      20.1374      0.00000
    191      20.1386      0.00000
    192      20.1625      0.00000

 k-point     2 :       0.3333    0.0000    0.0000
  band No.  band energies     occupation 
      1     -11.9092      1.00000
      2     -11.1387      1.00000
      3     -10.1580      1.00000
      4      -9.5939      1.00000
      5      -9.4915      1.00000
      6      -9.3858      1.00000
      7      -9.0603      1.00000
      8      -8.8520      1.00000
      9      -8.7380      1.00000
     10      -8.5520      1.00000
     11      -8.0788      1.00000
     12      -7.6944      1.00000
     13      -7.3705      1.00000
     14      -7.3587      1.00000
     15      -7.2442      1.00000
     16      -7.0071      1.00000
     17      -6.7678      1.00000
     18      -6.7237      1.00000
     19      -6.4946      1.00000
     20      -6.1667      1.00000
     21      -6.0607      1.00000
     22      -5.9480      1.00000
     23      -5.8904      1.00000
     24      -5.3598      1.00000
     25      -4.4101      1.00000
     26      -4.2462      1.00000
     27      -4.1418      1.00000
     28      -3.9104      1.00000
     29      -3.3901      1.00000
     30      -3.2990      1.00000
     31      -3.1884      1.00000
     32      -3.1459      1.00000
     33      -3.0838      1.00000
     34      -2.9889      1.00000
     35      -2.9792      1.00000
     36      -2.8916      1.00000
     37      -2.8298      1.00000
     38      -2.8252      1.00000
     39      -2.5966      1.00000
     40      -2.0958      1.00000
     41      -1.5723      1.00000
     42      -1.5387      1.00000
     43      -1.3990      1.00000
     44      -1.3304      1.00000
     45      -1.1359      1.00000
     46      -1.0756      1.00000
     47      -1.0712      1.00000
     48      -0.8073      1.00000
     49      -0.6085      1.00000
     50      -0.5464      1.00000
[...]
   -.429E+01 0.429E+01 0.104E+00   0.471E+01 -.471E+01 0.658E+00   -.421E+00 0.421E+00 -.762E+00   0.511E-05 -.606E-05 0.155E-04
   0.117E+02 -.477E+01 -.165E+01   -.122E+02 0.525E+01 0.193E+01   0.479E+00 -.480E+00 -.282E+00   -.230E-06 0.235E-04 0.795E-05
   0.513E+02 0.498E+02 0.498E+02   -.561E+02 -.544E+02 -.544E+02   0.487E+01 0.460E+01 0.460E+01   0.270E-06 0.725E-05 0.792E-05
   -.514E+01 0.145E+02 0.514E+01   0.514E+01 -.154E+02 -.514E+01   0.143E-02 0.883E+00 -.143E-02   0.574E-05 -.212E-04 -.598E-05
   -.503E+01 -.351E+01 0.152E+01   0.551E+01 0.386E+01 -.219E+01   -.475E+00 -.346E+00 0.674E+00   0.746E-05 0.171E-05 -.105E-04
   0.351E+01 0.152E+01 0.503E+01   -.386E+01 -.219E+01 -.551E+01   0.346E+00 0.674E+00 0.475E+00   -.640E-06 -.113E-04 -.870E-05
   -.104E+00 0.429E+01 0.429E+01   -.658E+00 -.471E+01 -.471E+01   0.762E+00 0.421E+00 0.421E+00   -.143E-04 -.599E-05 -.629E-05
   -.152E+01 -.351E+01 0.503E+01   0.219E+01 0.386E+01 -.551E+01   -.674E+00 -.346E+00 0.475E+00   0.103E-04 0.172E-05 -.860E-05
   -.429E+01 0.104E+00 0.429E+01   0.471E+01 0.658E+00 -.471E+01   -.421E+00 -.762E+00 0.421E+00   0.517E-05 0.151E-04 -.633E-05
   0.256E+00 0.326E+01 -.256E+00   -.331E+00 -.336E+01 0.331E+00   0.765E-01 0.998E-01 -.765E-01   -.231E-05 -.573E-05 0.261E-05
   0.253E+01 0.451E+01 0.451E+01   -.303E+01 -.435E+01 -.435E+01   0.505E+00 -.161E+00 -.161E+00   0.239E-05 -.578E-05 -.656E-05
   0.165E+01 -.477E+01 -.117E+02   -.193E+01 0.525E+01 0.122E+02   0.282E+00 -.480E+00 -.479E+00   -.816E-05 0.234E-04 0.470E-06
   -.451E+01 0.451E+01 -.253E+01   0.435E+01 -.435E+01 0.303E+01   0.161E+00 -.161E+00 -.505E+00   0.676E-05 -.582E-05 -.126E-05
   -.503E+01 0.152E+01 -.351E+01   0.551E+01 -.219E+01 0.386E+01   -.475E+00 0.674E+00 -.346E+00   0.753E-05 -.113E-04 0.919E-06
   -.326E+01 -.256E+00 -.256E+00   0.336E+01 0.331E+00 0.331E+00   -.998E-01 -.765E-01 -.765E-01   0.489E-05 0.331E-05 0.248E-05
   -.347E+01 -.529E+01 -.657E-01   0.358E+01 0.538E+01 -.211E+00   -.109E+00 -.868E-01 0.275E+00   -.758E-06 0.861E-05 -.875E-05
   0.245E+01 -.245E+01 0.757E+01   -.266E+01 0.266E+01 -.767E+01   0.215E+00 -.215E+00 0.106E+00   -.295E-05 0.425E-05 -.491E-05
   0.263E+01 -.263E+01 0.523E+01   -.270E+01 0.270E+01 -.560E+01   0.728E-01 -.728E-01 0.369E+00   -.750E-05 0.733E-05 -.891E-05
   -.309E+01 0.309E+01 0.725E+00   0.331E+01 -.331E+01 -.653E+00   -.219E+00 0.219E+00 -.689E-01   0.986E-05 -.112E-04 -.505E-06
   -.757E+01 -.245E+01 -.245E+01   0.767E+01 0.266E+01 0.266E+01   -.106E+00 -.215E+00 -.215E+00   0.424E-05 0.425E-05 0.390E-05
   0.668E+01 -.297E+02 -.668E+01   -.507E+01 0.317E+02 0.507E+01   -.161E+01 -.202E+01 0.161E+01   -.232E-04 -.142E-04 0.242E-04
   -.587E+01 0.172E+02 -.167E+02   0.523E+01 -.181E+02 0.178E+02   0.645E+00 0.819E+00 -.109E+01   -.849E-05 -.944E-05 0.144E-04
   -.347E+01 -.657E-01 -.529E+01   0.358E+01 -.211E+00 0.538E+01   -.109E+00 0.275E+00 -.868E-01   -.758E-06 -.799E-05 0.822E-05
   -.523E+01 -.263E+01 -.263E+01   0.560E+01 0.270E+01 0.270E+01   -.369E+00 -.728E-01 -.728E-01   0.826E-05 0.740E-05 0.815E-05
   0.167E+02 0.172E+02 0.587E+01   -.178E+02 -.181E+02 -.523E+01   0.109E+01 0.819E+00 -.645E+00   -.134E-04 -.946E-05 0.911E-05
   0.263E+01 0.523E+01 -.263E+01   -.270E+01 -.560E+01 0.270E+01   0.728E-01 0.369E+00 -.728E-01   -.741E-05 -.824E-05 0.808E-05
   -.172E+02 -.167E+02 0.587E+01   0.181E+02 0.178E+02 -.523E+01   -.819E+00 -.109E+01 -.645E+00   0.808E-05 0.148E-04 0.920E-05
   -.725E+00 0.309E+01 0.309E+01   0.653E+00 -.331E+01 -.331E+01   0.689E-01 0.219E+00 0.219E+00   -.115E-06 -.112E-04 -.109E-04
   0.529E+01 -.657E-01 0.347E+01   -.538E+01 -.211E+00 -.358E+01   0.868E-01 0.275E+00 0.109E+00   -.727E-05 -.794E-05 -.236E-06
   -.173E+01 -.228E+01 0.173E+01   0.186E+01 0.244E+01 -.186E+01   -.124E+00 -.158E+00 0.124E+00   0.105E-04 0.261E-05 -.112E-04
   -.587E+01 -.167E+02 0.172E+02   0.523E+01 0.178E+02 -.181E+02   0.645E+00 -.109E+01 0.819E+00   -.854E-05 0.147E-04 -.902E-05
   0.245E+01 0.757E+01 -.245E+01   -.266E+01 -.767E+01 0.266E+01   0.215E+00 0.106E+00 -.215E+00   -.295E-05 -.420E-05 0.395E-05
   0.297E+02 -.668E+01 -.668E+01   -.317E+02 0.507E+01 0.507E+01   0.202E+01 0.161E+01 0.161E+01   0.142E-04 0.245E-04 0.241E-04
   -.172E+02 0.587E+01 -.167E+02   0.181E+02 -.523E+01 0.178E+02   -.819E+00 -.645E+00 -.109E+01   0.814E-05 0.843E-05 0.144E-04
   0.657E-01 0.347E+01 -.529E+01   0.211E+00 -.358E+01 0.538E+01   -.275E+00 0.109E+00 -.868E-01   0.804E-05 -.545E-06 0.834E-05
   0.668E+01 -.668E+01 -.297E+02   -.507E+01 0.507E+01 0.317E+02   -.161E+01 0.161E+01 -.202E+01   -.231E-04 0.245E-04 -.135E-04
   -.171E+02 0.171E+02 -.907E+01   0.181E+02 -.181E+02 0.859E+01   -.948E+00 0.948E+00 0.478E+00   0.121E-04 -.134E-04 0.422E-06
   -.173E+01 0.173E+01 -.228E+01   0.186E+01 -.186E+01 0.244E+01   -.124E+00 0.124E+00 -.158E+00   0.104E-04 -.104E-04 0.340E-05
   0.167E+02 0.587E+01 0.172E+02   -.178E+02 -.523E+01 -.181E+02   0.109E+01 -.645E+00 0.819E+00   -.134E-04 0.839E-05 -.914E-05
   0.907E+01 0.171E+02 0.171E+02   -.859E+01 -.181E+02 -.181E+02   -.478E+00 0.948E+00 0.948E+00   0.202E-06 -.134E-04 -.131E-04
   -.309E+01 0.725E+00 0.309E+01   0.331E+01 -.653E+00 -.331E+01   -.219E+00 -.689E-01 0.219E+00   0.982E-05 0.258E-06 -.108E-04
   0.657E-01 -.529E+01 0.347E+01   0.211E+00 0.538E+01 -.358E+01   -.275E+00 -.868E-01 0.109E+00   0.809E-05 0.865E-05 -.192E-06
   0.529E+01 0.347E+01 -.657E-01   -.538E+01 -.358E+01 -.211E+00   0.868E-01 0.109E+00 0.275E+00   -.731E-05 -.547E-06 -.866E-05
   0.228E+01 0.173E+01 0.173E+01   -.244E+01 -.186E+01 -.186E+01   0.158E+00 0.124E+00 0.124E+00   -.279E-05 -.104E-04 -.111E-04
   -.171E+02 -.907E+01 0.171E+02   0.181E+02 0.859E+01 -.181E+02   -.948E+00 0.478E+00 0.948E+00   0.120E-04 -.338E-06 -.130E-04
   0.622E+02 -.622E+02 -.622E+02   -.766E+02 0.766E+02 0.766E+02   0.144E+02 -.144E+02 -.144E+02   -.427E-04 0.440E-04 0.442E-04
 -----------------------------------------------------------------------------------------------
   -.727E+01 0.727E+01 0.727E+01   0.114E-12 0.284E-13 0.142E-13   0.727E+01 -.727E+01 -.727E+01   -.391E-04 0.394E-04 0.388E-04
 
 
 POSITION                                       TOTAL-FORCE (eV/Angst)
 -----------------------------------------------------------------------------------
      0.00097      7.13561      7.13561        -0.000152      0.000152      0.000152
      4.45156      4.44502      0.90798        -0.002462     -0.000912      0.002773
      2.68104      6.24838      0.89106        -0.000526     -0.000028      0.002114
      0.89978      2.67997      2.67997        -0.002925      0.001494      0.001494
      6.22861      4.44502      2.68503        -0.002773     -0.000912      0.002462
      4.45662      6.23681      2.67997        -0.001494      0.002925      0.001494
      2.69156      0.90798      2.68503         0.000912      0.002773      0.002462
      0.89276      4.46098      4.46098        -0.002919      0.004888      0.004888
      6.24553      6.24838      4.45554        -0.002114     -0.000028      0.000526
      4.45156      0.90798      4.44502        -0.002462      0.002773     -0.000912
      2.61558      2.64162      4.52101        -0.004108      0.006751      0.004108
      0.89256      6.24403      6.24403         0.000583     -0.000583     -0.000583
      6.24331      0.89328      6.23796         0.001521     -0.001521      0.005963
      4.45662      2.67997      6.23681        -0.001494      0.001494      0.002925
      6.25483      2.67386      0.88176         0.001634     -0.000539     -0.001634
      2.67561      4.46098      6.24383        -0.004888      0.004888      0.002919
      2.61558      4.52101      2.64162        -0.004108      0.004108      0.006751
      0.88551      6.25108      2.68344        -0.001016      0.001016      0.000177
      6.22861      2.68503      4.44502        -0.002773      0.002462     -0.000912
      4.49497      4.52101      4.52101        -0.006751      0.004108      0.004108
      2.67561      6.24383      4.46098        -0.004888      0.002919      0.004888
      0.88820      0.89106      4.45555         0.000028      0.002114      0.000526
      6.24553      4.45554      6.24838        -0.002114      0.000526     -0.000028
      4.45314      6.25108      6.25108        -0.000177      0.001016      0.001016
      2.68104      0.89106      6.24838        -0.000526      0.002114     -0.000028
      0.88551      2.68344      6.25108        -0.001016      0.000177      0.001016
      6.24331      6.23796      0.89328         0.001521      0.005963     -0.001521
      4.46273      0.88176      0.88176         0.000539     -0.001634     -0.001634
      2.69156      2.68503      0.90798         0.000912      0.002462      0.002773
      6.25483      0.88176      2.67386         0.001634     -0.001634     -0.000539
      0.88820      4.45554      0.89106         0.000028      0.000526      0.002114
      0.89862      0.89328      0.89328        -0.005963     -0.001521     -0.001521
      1.79186      1.78712      0.00636         0.002802      0.002319     -0.002385
      5.35272      1.78387      7.12746        -0.001538      0.001538     -0.002033
      3.56732      3.56927      0.00091         0.000253     -0.000253     -0.000756
      1.78489      5.35170      0.00205         0.003157     -0.003157      0.003072
      0.00913      1.78387      1.78387         0.002033      0.001538      0.001538
      5.34965      3.52769      1.78694         0.002506     -0.008978     -0.002506
      3.55809      5.33811      1.80436        -0.001889     -0.000317     -0.005386
      1.79186      0.00636      1.78712         0.002802     -0.002385      0.002319
      7.13568      3.56927      3.56927         0.000756     -0.000253     -0.000253
      5.33223      5.33811      3.57850         0.005386     -0.000317      0.001889
      3.56732      0.00091      3.56927         0.000253     -0.000756     -0.000253
      1.79848      1.80436      3.57850         0.000317     -0.005386      0.001889
      7.13454      5.35170      5.35170        -0.003072     -0.003157     -0.003157
      5.34947      0.00636      5.34473        -0.002319     -0.002385     -0.002802
      7.13635      3.56801      0.00024         0.000996     -0.000822     -0.000996
      3.55809      1.80436      5.33811        -0.001889     -0.005386     -0.000317
      5.35272      7.12746      1.78387        -0.001538     -0.002033      0.001538
      3.60890      1.78694      1.78694         0.008978     -0.002506     -0.002506
      1.79848      3.57850      1.80436         0.000317      0.001889     -0.005386
      7.13023      5.34473      1.78712         0.002385     -0.002802      0.002319
      5.34965      1.78694      3.52769         0.002506     -0.002506     -0.008978
      1.78692      5.34967      3.56444         0.002003     -0.002003     -0.007427
      7.13635      0.00024      3.56801         0.000996     -0.000996     -0.000822
      5.33223      3.57850      5.33811         0.005386      0.001889     -0.000317
      3.57215      5.34967      5.34967         0.007427     -0.002003     -0.002003
      1.78489      0.00205      5.35170         0.003157      0.003072     -0.003157
      7.13023      1.78712      5.34473         0.002385      0.002319     -0.002802
      5.34947      5.34473      0.00636        -0.002319     -0.002802     -0.002385
      3.56858      0.00024      0.00024         0.000822     -0.000996     -0.000996
      1.78692      3.56444      5.34967         0.002003     -0.007427     -0.002003
      4.53889      2.59770      2.59770         0.003274     -0.003274     -0.003274
 -----------------------------------------------------------------------------------
    total drift:                               -0.001765      0.001268     -0.002076


--------------------------------------------------------------------------------------------------------



  FREE ENERGIE OF THE ION-ELECTRON SYSTEM (eV)
  ---------------------------------------------------
  free  energy   TOTEN  =      -555.10711613 eV

  energy  without entropy=     -555.10711613  energy(sigma->0) =     -555.10711613
 


--------------------------------------------------------------------------------------------------------


    POTLOK:  cpu time    0.0225: real time    0.0225


--------------------------------------------------------------------------------------------------------


 stress matrix after NEB project (eV)
     18.22725     -3.64592     -3.64592
     -3.64592     18.22725      3.64592
     -3.64592      3.64592     18.22725
  FORCES: max atom, RMS     0.009652    0.005106
  FORCE total and by dimension    0.040525    0.008978
  Stress total and by dimension   32.809368   18.227254


--------------------------------------------------------------------------------------------------------


  
 reached required accuracy - stopping structural energy minimisation
 writing wavefunctions
     LOOP+:  cpu time   21.8481: real time   28.7984
    4ORBIT:  cpu time    0.0000: real time    0.0000
 


 total charge     
 
# of ion       s       p       d       tot
------------------------------------------
    1        0.830   1.744   0.000   2.574
    2        0.830   1.740   0.000   2.571
    3        0.833   1.743   0.000   2.576
    4        0.832   1.749   0.000   2.580
    5        0.830   1.741   0.000   2.571
    6        0.832   1.749   0.000   2.580
    7        0.830   1.741   0.000   2.571
    8        0.831   1.747   0.000   2.578
    9        0.833   1.743   0.000   2.576
   10        0.830   1.741   0.000   2.571
   11        0.840   1.733   0.000   2.572
   12        0.831   1.749   0.000   2.580
   13        0.831   1.751   0.000   2.582
   14        0.832   1.748   0.000   2.580
   15        0.834   1.760   0.000   2.594
   16        0.831   1.747   0.000   2.578
   17        0.839   1.725   0.000   2.564
   18        0.833   1.742   0.000   2.575
   19        0.830   1.741   0.000   2.571
   20        0.838   1.730   0.000   2.568
   21        0.831   1.747   0.000   2.578
   22        0.833   1.744   0.000   2.576
   23        0.833   1.744   0.000   2.577
   24        0.832   1.744   0.000   2.576
   25        0.833   1.743   0.000   2.576
   26        0.832   1.744   0.000   2.576
   27        0.831   1.751   0.000   2.582
   28        0.834   1.760   0.000   2.594
   29        0.830   1.740   0.000   2.571
   30        0.834   1.760   0.000   2.594
   31        0.832   1.745   0.000   2.577
   32        0.831   1.751   0.000   2.582
   33        0.830   1.740   0.000   2.570
   34        0.831   1.749   0.000   2.580
   35        0.831   1.754   0.000   2.585
   36        0.831   1.748   0.000   2.578
   37        0.831   1.749   0.000   2.579
   38        0.825   1.714   0.000   2.539
   39        0.831   1.749   0.000   2.580
   40        0.830   1.740   0.000   2.570
   41        0.831   1.754   0.000   2.585
   42        0.831   1.750   0.000   2.581
   43        0.831   1.754   0.000   2.585
   44        0.831   1.750   0.000   2.581
   45        0.831   1.748   0.000   2.579
   46        0.830   1.740   0.000   2.570
   47        0.834   1.768   0.000   2.602
   48        0.831   1.749   0.000   2.580
   49        0.831   1.749   0.000   2.579
   50        0.825   1.715   0.000   2.540
   51        0.831   1.751   0.000   2.582
   52        0.830   1.740   0.000   2.570
   53        0.826   1.713   0.000   2.539
   54        0.832   1.759   0.000   2.591
   55        0.834   1.766   0.000   2.599
   56        0.831   1.751   0.000   2.582
   57        0.832   1.760   0.000   2.592
   58        0.831   1.748   0.000   2.579
   59        0.830   1.740   0.000   2.570
   60        0.830   1.740   0.000   2.570
   61        0.835   1.765   0.000   2.600
   62        0.832   1.760   0.000   2.592
   63        1.211   2.694   0.000   3.905
--------------------------------------------------
tot         52.766 110.942   0.000 163.709
 


 magnetization (x)
 
# of ion       s       p       d       tot
------------------------------------------
    1       -0.000  -0.000   0.000  -0.000
    2        0.001   0.007   0.000   0.007
    3        0.005   0.020   0.000   0.024
    4        0.001   0.006   0.000   0.007
    5        0.001   0.005   0.000   0.006
    6        0.001   0.007   0.000   0.008
    7        0.001   0.005   0.000   0.006
    8        0.002   0.008   0.000   0.010
    9        0.004   0.021   0.000   0.025
   10        0.001   0.005   0.000   0.006
   11        0.041   0.282   0.000   0.324
   12        0.001   0.004   0.000   0.005
   13        0.001   0.003   0.000   0.004
   14        0.001   0.008   0.000   0.009
   15        0.000   0.002   0.000   0.002
   16        0.001   0.009   0.000   0.010
   17        0.043   0.289   0.000   0.332
   18        0.003   0.019   0.000   0.022
   19        0.001   0.005   0.000   0.006
   20        0.042   0.282   0.000   0.324
   21        0.001   0.008   0.000   0.010
   22        0.004   0.021   0.000   0.025
   23        0.005   0.019   0.000   0.024
   24        0.004   0.017   0.000   0.021
   25        0.004   0.020   0.000   0.024
   26        0.004   0.017   0.000   0.021
   27        0.001   0.003   0.000   0.004
   28        0.000   0.002   0.000   0.002
   29        0.001   0.006   0.000   0.007
   30        0.000   0.002   0.000   0.002
   31        0.005   0.019   0.000   0.024
   32        0.001   0.003   0.000   0.003
   33       -0.000  -0.001   0.000  -0.002
   34       -0.000  -0.001   0.000  -0.001
   35       -0.000  -0.001   0.000  -0.002
   36       -0.000  -0.001   0.000  -0.001
   37       -0.000  -0.001   0.000  -0.001
   38        0.000   0.001   0.000   0.001
   39       -0.001  -0.003   0.000  -0.005
   40       -0.000  -0.002   0.000  -0.002
   41       -0.000  -0.001   0.000  -0.002
   42       -0.001  -0.004   0.000  -0.005
   43       -0.000  -0.001   0.000  -0.002
   44       -0.001  -0.004   0.000  -0.005
   45       -0.000  -0.002   0.000  -0.002
   46       -0.000  -0.001   0.000  -0.002
   47        0.002   0.007   0.000   0.009
   48       -0.001  -0.003   0.000  -0.005
   49       -0.000  -0.001   0.000  -0.001
   50        0.000   0.001   0.000   0.002
   51       -0.001  -0.005   0.000  -0.006
   52       -0.000  -0.002   0.000  -0.002
   53        0.000   0.001   0.000   0.001
   54       -0.002  -0.008   0.000  -0.011
   55        0.002   0.009   0.000   0.011
   56       -0.001  -0.005   0.000  -0.006
   57       -0.002  -0.009   0.000  -0.011
   58       -0.000  -0.002   0.000  -0.002
   59       -0.000  -0.002   0.000  -0.002
   60       -0.000  -0.001   0.000  -0.001
   61        0.001   0.008   0.000   0.009
   62       -0.002  -0.009   0.000  -0.011
   63       -0.001   0.003   0.000   0.002
--------------------------------------------------
tot          0.168   1.081   0.000   1.249
 

 total amount of memory used by VASP MPI-rank0    50117. kBytes
=======================================================================

   base      :      30000. kBytes
   nonl-proj :       8240. kBytes
   fftplans  :       2411. kBytes
   grid      :       3630. kBytes
   one-center:        196. kBytes
   wavefun   :       5640. kBytes
 
  
  
 General timing and accounting informations for this job:
 ========================================================
  
                  Total CPU time used (sec):       28.571
                            User time (sec):       27.146
                          System time (sec):        1.424
                         Elapsed time (sec):       37.154
  
                   Maximum memory used (kb):      172356.
                   Average memory used (kb):           0.
  
                          Minor page faults:       100722
                          Major page faults:            0
                 Voluntary context switches:         7461
