phonopy:
  version: "2.21.0"
  frequency_unit_conversion_factor: 15.633302
  symmetry_tolerance: 1.00000e-05
  configuration:
    dim: "1 1 1"
    atom_name: "C     N"
    band_points: "1"
    band: "0.0 0.0 0.0 0 0 0"
    eigenvectors: ".TRUE."
    dos: ".TRUE."
    dos_range: "0 40 0.1"
    writedm: ".true."
    mp: "1 1 1"
    gamma_center: ".TRUE."
    qpoints: "0 0 0"

physical_unit:
  atomic_mass: "AMU"
  length: "angstrom"
  force_constants: "eV/angstrom^2"

space_group:
  type: "R3m"
  number: 160
  Hall_symbol: "R 3 -2\""

supercell_matrix:
- [   1,   0,   0 ]
- [   0,   1,   0 ]
- [   0,   0,   1 ]

primitive_cell:
  lattice:
  - [     7.136588097000000,     0.000000000000000,     0.000000000000000 ] # a
  - [     0.000000000000000,     7.136588097000000,     0.000000000000000 ] # b
  - [     0.000000000000000,     0.000000000000000,     7.136588097000000 ] # c
  points:
  - symbol: C  # 1
    coordinates: [  0.000136466785222,  0.999863533214778,  0.999863533214778 ]
    mass: 12.010700
  - symbol: C  # 2
    coordinates: [  0.623765506408326,  0.622850140061601,  0.127228412903783 ]
    mass: 12.010700
  - symbol: C  # 3
    coordinates: [  0.375675786738590,  0.875542202623805,  0.124857598647409 ]
    mass: 12.010700
  - symbol: C  # 4
    coordinates: [  0.126080092016608,  0.375525671089058,  0.375525705089053 ]
    mass: 12.010700
  - symbol: C  # 5
    coordinates: [  0.872771587096217,  0.622850140061601,  0.376234560591676 ]
    mass: 12.010700
  - symbol: C  # 6
    coordinates: [  0.624474328910942,  0.873919890983387,  0.375525705089053 ]
    mass: 12.010700
  - symbol: C  # 7
    coordinates: [  0.377149893938402,  0.127228387903784,  0.376234493591674 ]
    mass: 12.010700
  - symbol: C  # 8
    coordinates: [  0.125095821321459,  0.625086144294634,  0.625086211294636 ]
    mass: 12.010700
  - symbol: C  # 9
    coordinates: [  0.875142468352593,  0.875542202623805,  0.624324247261413 ]
    mass: 12.010700
  - symbol: C  # 10
    coordinates: [  0.623765506408326,  0.127228412903783,  0.622850140061601 ]
    mass: 12.010700
  - symbol: C  # 11
    coordinates: [  0.366502588241666,  0.370151019554363,  0.633497445758330 ]
    mass: 12.010700
  - symbol: C  # 12
    coordinates: [  0.125068558488088,  0.874931474511911,  0.874931474511911 ]
    mass: 12.010700
  - symbol: C  # 13
    coordinates: [  0.874830860546311,  0.125169156453687,  0.874082055628101 ]
    mass: 12.010700
  - symbol: C  # 14
    coordinates: [  0.624474328910942,  0.375525671089058,  0.873919957983389 ]
    mass: 12.010700
  - symbol: C  # 15
    coordinates: [  0.876445257140809,  0.374669519474992,  0.123554792859188 ]
    mass: 12.010700
  - symbol: C  # 16
    coordinates: [  0.374913822705366,  0.625086211294636,  0.874904228678545 ]
    mass: 12.010700
  - symbol: C  # 17
    coordinates: [  0.366502588241666,  0.633497445758330,  0.370151053554366 ]
    mass: 12.010700
  - symbol: C  # 18
    coordinates: [  0.124079935166996,  0.875920047832999,  0.376012190133238 ]
    mass: 12.010700
  - symbol: C  # 19
    coordinates: [  0.872771654096212,  0.376234493591674,  0.622850140061601 ]
    mass: 12.010700
  - symbol: C  # 20
    coordinates: [  0.629848980445637,  0.633497378758335,  0.633497445758330 ]
    mass: 12.010700
  - symbol: C  # 21
    coordinates: [  0.374913822705366,  0.874904094678541,  0.625086211294636 ]
    mass: 12.010700
  - symbol: C  # 22
    coordinates: [  0.124457780376197,  0.124857581647412,  0.624324314261415 ]
    mass: 12.010700
  - symbol: C  # 23
    coordinates: [  0.875142468352593,  0.624324180261411,  0.875542269623807 ]
    mass: 12.010700
  - symbol: C  # 24
    coordinates: [  0.623987843866765,  0.875920114833001,  0.875920114833001 ]
    mass: 12.010700
  - symbol: C  # 25
    coordinates: [  0.375675786738590,  0.124857581647412,  0.875542202623805 ]
    mass: 12.010700
  - symbol: C  # 26
    coordinates: [  0.124079952167001,  0.376012156133236,  0.875920114833001 ]
    mass: 12.010700
  - symbol: C  # 27
    coordinates: [  0.874830860546311,  0.874081988628099,  0.125169189453686 ]
    mass: 12.010700
  - symbol: C  # 28
    coordinates: [  0.625330480525008,  0.123554792859188,  0.123554809859201 ]
    mass: 12.010700
  - symbol: C  # 29
    coordinates: [  0.377149893938402,  0.376234493591674,  0.127228412903783 ]
    mass: 12.010700
  - symbol: C  # 30
    coordinates: [  0.876445257140809,  0.123554750859199,  0.374669586474994 ]
    mass: 12.010700
  - symbol: C  # 31
    coordinates: [  0.124457763376192,  0.624324247261413,  0.124857598647409 ]
    mass: 12.010700
  - symbol: C  # 32
    coordinates: [  0.125917994371896,  0.125169189453686,  0.125169206453691 ]
    mass: 12.010700
  - symbol: C  # 33
    coordinates: [  0.251080242591286,  0.250416885891802,  0.000890956410728 ]
    mass: 12.010700
  - symbol: C  # 34
    coordinates: [  0.750039329593349,  0.249960703406657,  0.998721311611014 ]
    mass: 12.010700
  - symbol: C  # 35
    coordinates: [  0.499863855843444,  0.500136144156556,  0.000127424105564 ]
    mass: 12.010700
  - symbol: C  # 36
    coordinates: [  0.250103430954375,  0.749896536045625,  0.000287563330211 ]
    mass: 12.010700
  - symbol: C  # 37
    coordinates: [  0.001278688388986,  0.249960703406657,  0.249960736406656 ]
    mass: 12.010700
  - symbol: C  # 38
    coordinates: [  0.749608611616573,  0.494310167509518,  0.250391454383433 ]
    mass: 12.010700
  - symbol: C  # 39
    coordinates: [  0.498569946971351,  0.747991981309248,  0.252832674611618 ]
    mass: 12.010700
  - symbol: C  # 40
    coordinates: [  0.251080242591286,  0.000890956410728,  0.250416885891802 ]
    mass: 12.010700
  - symbol: C  # 41
    coordinates: [  0.999872575894436,  0.500136144156556,  0.500136211156558 ]
    mass: 12.010700
  - symbol: C  # 42
    coordinates: [  0.747167358388381,  0.747991981309248,  0.501430120028644 ]
    mass: 12.010700
  - symbol: C  # 43
    coordinates: [  0.499863855843444,  0.000127424105564,  0.500136144156556 ]
    mass: 12.010700
  - symbol: C  # 44
    coordinates: [  0.252008018690752,  0.252832657611620,  0.501430120028644 ]
    mass: 12.010700
  - symbol: C  # 45
    coordinates: [  0.999712436669789,  0.749896536045625,  0.749896536045625 ]
    mass: 12.010700
  - symbol: C  # 46
    coordinates: [  0.749583147108197,  0.000890956410728,  0.748919724408715 ]
    mass: 12.010700
  - symbol: C  # 47
    coordinates: [  0.999967056687787,  0.499959854779306,  0.000032943312213 ]
    mass: 12.010700
  - symbol: C  # 48
    coordinates: [  0.498569946971351,  0.252832641611619,  0.747992047309246 ]
    mass: 12.010700
  - symbol: C  # 49
    coordinates: [  0.750039329593349,  0.998721311611014,  0.249960736406656 ]
    mass: 12.010700
  - symbol: C  # 50
    coordinates: [  0.505689832490482,  0.250391454383433,  0.250391421383434 ]
    mass: 12.010700
  - symbol: C  # 51
    coordinates: [  0.252007985690753,  0.501430053028649,  0.252832707611617 ]
    mass: 12.010700
  - symbol: C  # 52
    coordinates: [  0.999109043589272,  0.748919724408715,  0.250416918891808 ]
    mass: 12.010700
  - symbol: C  # 53
    coordinates: [  0.749608611616573,  0.250391404383429,  0.494310234509520 ]
    mass: 12.010700
  - symbol: C  # 54
    coordinates: [  0.250388929741938,  0.749611037258056,  0.499459475369235 ]
    mass: 12.010700
  - symbol: C  # 55
    coordinates: [  0.999967056687787,  0.000032943312213,  0.499959854779306 ]
    mass: 12.010700
  - symbol: C  # 56
    coordinates: [  0.747167358388381,  0.501430053028649,  0.747991981309248 ]
    mass: 12.010700
  - symbol: C  # 57
    coordinates: [  0.500540658630761,  0.749611037258056,  0.749611037258056 ]
    mass: 12.010700
  - symbol: C  # 58
    coordinates: [  0.250103463954375,  0.000287563330211,  0.749896602045624 ]
    mass: 12.010700
  - symbol: C  # 59
    coordinates: [  0.999109043589272,  0.250416885891802,  0.748919724408715 ]
    mass: 12.010700
  - symbol: C  # 60
    coordinates: [  0.749583147108197,  0.748919724408715,  0.000890956410728 ]
    mass: 12.010700
  - symbol: C  # 61
    coordinates: [  0.500040145220694,  0.000032943312213,  0.000032943312213 ]
    mass: 12.010700
  - symbol: C  # 62
    coordinates: [  0.250388929741938,  0.499459375369234,  0.749611103258061 ]
    mass: 12.010700
  - symbol: N  # 63
    coordinates: [  0.636002766085966,  0.363997233914034,  0.363997233914034 ]
    mass: 14.006700
  reciprocal_lattice: # without 2pi
  - [     0.140122981235301,     0.000000000000000,     0.000000000000000 ] # a*
  - [     0.000000000000000,     0.140122981235301,     0.000000000000000 ] # b*
  - [     0.000000000000000,     0.000000000000000,     0.140122981235301 ] # c*

unit_cell:
  lattice:
  - [     7.136588097000000,     0.000000000000000,     0.000000000000000 ] # a
  - [     0.000000000000000,     7.136588097000000,     0.000000000000000 ] # b
  - [     0.000000000000000,     0.000000000000000,     7.136588097000000 ] # c
  points:
  - symbol: C  # 1
    coordinates: [  0.000136466785222,  0.999863533214778,  0.999863533214778 ]
    mass: 12.010700
    reduced_to: 1
  - symbol: C  # 2
    coordinates: [  0.623765506408326,  0.622850140061601,  0.127228412903783 ]
    mass: 12.010700
    reduced_to: 2
  - symbol: C  # 3
    coordinates: [  0.375675786738590,  0.875542202623805,  0.124857598647409 ]
    mass: 12.010700
    reduced_to: 3
  - symbol: C  # 4
    coordinates: [  0.126080092016608,  0.375525671089058,  0.375525705089053 ]
    mass: 12.010700
    reduced_to: 4
  - symbol: C  # 5
    coordinates: [  0.872771587096217,  0.622850140061601,  0.376234560591676 ]
    mass: 12.010700
    reduced_to: 5
  - symbol: C  # 6
    coordinates: [  0.624474328910942,  0.873919890983387,  0.375525705089053 ]
    mass: 12.010700
    reduced_to: 6
  - symbol: C  # 7
    coordinates: [  0.377149893938402,  0.127228387903784,  0.376234493591674 ]
    mass: 12.010700
    reduced_to: 7
  - symbol: C  # 8
    coordinates: [  0.125095821321459,  0.625086144294634,  0.625086211294636 ]
    mass: 12.010700
    reduced_to: 8
  - symbol: C  # 9
    coordinates: [  0.875142468352593,  0.875542202623805,  0.624324247261413 ]
    mass: 12.010700
    reduced_to: 9
  - symbol: C  # 10
    coordinates: [  0.623765506408326,  0.127228412903783,  0.622850140061601 ]
    mass: 12.010700
    reduced_to: 10
  - symbol: C  # 11
    coordinates: [  0.366502588241666,  0.370151019554363,  0.633497445758330 ]
    mass: 12.010700
    reduced_to: 11
  - symbol: C  # 12
    coordinates: [  0.125068558488088,  0.874931474511911,  0.874931474511911 ]
    mass: 12.010700
    reduced_to: 12
  - symbol: C  # 13
    coordinates: [  0.874830860546311,  0.125169156453687,  0.874082055628101 ]
    mass: 12.010700
    reduced_to: 13
  - symbol: C  # 14
    coordinates: [  0.624474328910942,  0.375525671089058,  0.873919957983389 ]
    mass: 12.010700
    reduced_to: 14
  - symbol: C  # 15
    coordinates: [  0.876445257140809,  0.374669519474992,  0.123554792859188 ]
    mass: 12.010700
    reduced_to: 15
  - symbol: C  # 16
    coordinates: [  0.374913822705366,  0.625086211294636,  0.874904228678545 ]
    mass: 12.010700
    reduced_to: 16
  - symbol: C  # 17
    coordinates: [  0.366502588241666,  0.633497445758330,  0.370151053554366 ]
    mass: 12.010700
    reduced_to: 17
  - symbol: C  # 18
    coordinates: [  0.124079935166996,  0.875920047832999,  0.376012190133238 ]
    mass: 12.010700
    reduced_to: 18
  - symbol: C  # 19
    coordinates: [  0.872771654096212,  0.376234493591674,  0.622850140061601 ]
    mass: 12.010700
    reduced_to: 19
  - symbol: C  # 20
    coordinates: [  0.629848980445637,  0.633497378758335,  0.633497445758330 ]
    mass: 12.010700
    reduced_to: 20
  - symbol: C  # 21
    coordinates: [  0.374913822705366,  0.874904094678541,  0.625086211294636 ]
    mass: 12.010700
    reduced_to: 21
  - symbol: C  # 22
    coordinates: [  0.124457780376197,  0.124857581647412,  0.624324314261415 ]
    mass: 12.010700
    reduced_to: 22
  - symbol: C  # 23
    coordinates: [  0.875142468352593,  0.624324180261411,  0.875542269623807 ]
    mass: 12.010700
    reduced_to: 23
  - symbol: C  # 24
    coordinates: [  0.623987843866765,  0.875920114833001,  0.875920114833001 ]
    mass: 12.010700
    reduced_to: 24
  - symbol: C  # 25
    coordinates: [  0.375675786738590,  0.124857581647412,  0.875542202623805 ]
    mass: 12.010700
    reduced_to: 25
  - symbol: C  # 26
    coordinates: [  0.124079952167001,  0.376012156133236,  0.875920114833001 ]
    mass: 12.010700
    reduced_to: 26
  - symbol: C  # 27
    coordinates: [  0.874830860546311,  0.874081988628099,  0.125169189453686 ]
    mass: 12.010700
    reduced_to: 27
  - symbol: C  # 28
    coordinates: [  0.625330480525008,  0.123554792859188,  0.123554809859201 ]
    mass: 12.010700
    reduced_to: 28
  - symbol: C  # 29
    coordinates: [  0.377149893938402,  0.376234493591674,  0.127228412903783 ]
    mass: 12.010700
    reduced_to: 29
  - symbol: C  # 30
    coordinates: [  0.876445257140809,  0.123554750859199,  0.374669586474994 ]
    mass: 12.010700
    reduced_to: 30
  - symbol: C  # 31
    coordinates: [  0.124457763376192,  0.624324247261413,  0.124857598647409 ]
    mass: 12.010700
    reduced_to: 31
  - symbol: C  # 32
    coordinates: [  0.125917994371896,  0.125169189453686,  0.125169206453691 ]
    mass: 12.010700
    reduced_to: 32
  - symbol: C  # 33
    coordinates: [  0.251080242591286,  0.250416885891802,  0.000890956410728 ]
    mass: 12.010700
    reduced_to: 33
  - symbol: C  # 34
    coordinates: [  0.750039329593349,  0.249960703406657,  0.998721311611014 ]
    mass: 12.010700
    reduced_to: 34
  - symbol: C  # 35
    coordinates: [  0.499863855843444,  0.500136144156556,  0.000127424105564 ]
    mass: 12.010700
    reduced_to: 35
  - symbol: C  # 36
    coordinates: [  0.250103430954375,  0.749896536045625,  0.000287563330211 ]
    mass: 12.010700
    reduced_to: 36
  - symbol: C  # 37
    coordinates: [  0.001278688388986,  0.249960703406657,  0.249960736406656 ]
    mass: 12.010700
    reduced_to: 37
  - symbol: C  # 38
    coordinates: [  0.749608611616573,  0.494310167509518,  0.250391454383433 ]
    mass: 12.010700
    reduced_to: 38
  - symbol: C  # 39
    coordinates: [  0.498569946971351,  0.747991981309248,  0.252832674611618 ]
    mass: 12.010700
    reduced_to: 39
  - symbol: C  # 40
    coordinates: [  0.251080242591286,  0.000890956410728,  0.250416885891802 ]
    mass: 12.010700
    reduced_to: 40
  - symbol: C  # 41
    coordinates: [  0.999872575894436,  0.500136144156556,  0.500136211156558 ]
    mass: 12.010700
    reduced_to: 41
  - symbol: C  # 42
    coordinates: [  0.747167358388381,  0.747991981309248,  0.501430120028644 ]
    mass: 12.010700
    reduced_to: 42
  - symbol: C  # 43
    coordinates: [  0.499863855843444,  0.000127424105564,  0.500136144156556 ]
    mass: 12.010700
    reduced_to: 43
  - symbol: C  # 44
    coordinates: [  0.252008018690752,  0.252832657611620,  0.501430120028644 ]
    mass: 12.010700
    reduced_to: 44
  - symbol: C  # 45
    coordinates: [  0.999712436669789,  0.749896536045625,  0.749896536045625 ]
    mass: 12.010700
    reduced_to: 45
  - symbol: C  # 46
    coordinates: [  0.749583147108197,  0.000890956410728,  0.748919724408715 ]
    mass: 12.010700
    reduced_to: 46
  - symbol: C  # 47
    coordinates: [  0.999967056687787,  0.499959854779306,  0.000032943312213 ]
    mass: 12.010700
    reduced_to: 47
  - symbol: C  # 48
    coordinates: [  0.498569946971351,  0.252832641611619,  0.747992047309246 ]
    mass: 12.010700
    reduced_to: 48
  - symbol: C  # 49
    coordinates: [  0.750039329593349,  0.998721311611014,  0.249960736406656 ]
    mass: 12.010700
    reduced_to: 49
  - symbol: C  # 50
    coordinates: [  0.505689832490482,  0.250391454383433,  0.250391421383434 ]
    mass: 12.010700
    reduced_to: 50
  - symbol: C  # 51
    coordinates: [  0.252007985690753,  0.501430053028649,  0.252832707611617 ]
    mass: 12.010700
    reduced_to: 51
  - symbol: C  # 52
    coordinates: [  0.999109043589272,  0.748919724408715,  0.250416918891808 ]
    mass: 12.010700
    reduced_to: 52
  - symbol: C  # 53
    coordinates: [  0.749608611616573,  0.250391404383429,  0.494310234509520 ]
    mass: 12.010700
    reduced_to: 53
  - symbol: C  # 54
    coordinates: [  0.250388929741938,  0.749611037258056,  0.499459475369235 ]
    mass: 12.010700
    reduced_to: 54
  - symbol: C  # 55
    coordinates: [  0.999967056687787,  0.000032943312213,  0.499959854779306 ]
    mass: 12.010700
    reduced_to: 55
  - symbol: C  # 56
    coordinates: [  0.747167358388381,  0.501430053028649,  0.747991981309248 ]
    mass: 12.010700
    reduced_to: 56
  - symbol: C  # 57
    coordinates: [  0.500540658630761,  0.749611037258056,  0.749611037258056 ]
    mass: 12.010700
    reduced_to: 57
  - symbol: C  # 58
    coordinates: [  0.250103463954375,  0.000287563330211,  0.749896602045624 ]
    mass: 12.010700
    reduced_to: 58
  - symbol: C  # 59
    coordinates: [  0.999109043589272,  0.250416885891802,  0.748919724408715 ]
    mass: 12.010700
    reduced_to: 59
  - symbol: C  # 60
    coordinates: [  0.749583147108197,  0.748919724408715,  0.000890956410728 ]
    mass: 12.010700
    reduced_to: 60
  - symbol: C  # 61
    coordinates: [  0.500040145220694,  0.000032943312213,  0.000032943312213 ]
    mass: 12.010700
    reduced_to: 61
  - symbol: C  # 62
    coordinates: [  0.250388929741938,  0.499459375369234,  0.749611103258061 ]
    mass: 12.010700
    reduced_to: 62
  - symbol: N  # 63
    coordinates: [  0.636002766085966,  0.363997233914034,  0.363997233914034 ]
    mass: 14.006700
    reduced_to: 63

supercell:
  lattice:
  - [     7.136588097000000,     0.000000000000000,     0.000000000000000 ] # a
  - [     0.000000000000000,     7.136588097000000,     0.000000000000000 ] # b
  - [     0.000000000000000,     0.000000000000000,     7.136588097000000 ] # c
  points:
  - symbol: C  # 1
    coordinates: [  0.000136466785222,  0.999863533214778,  0.999863533214778 ]
    mass: 12.010700
    reduced_to: 1
  - symbol: C  # 2
    coordinates: [  0.623765506408326,  0.622850140061601,  0.127228412903783 ]
    mass: 12.010700
    reduced_to: 2
  - symbol: C  # 3
    coordinates: [  0.375675786738590,  0.875542202623805,  0.124857598647409 ]
    mass: 12.010700
    reduced_to: 3
  - symbol: C  # 4
    coordinates: [  0.126080092016608,  0.375525671089058,  0.375525705089053 ]
    mass: 12.010700
    reduced_to: 4
  - symbol: C  # 5
    coordinates: [  0.872771587096217,  0.622850140061601,  0.376234560591676 ]
    mass: 12.010700
    reduced_to: 5
  - symbol: C  # 6
    coordinates: [  0.624474328910942,  0.873919890983387,  0.375525705089053 ]
    mass: 12.010700
    reduced_to: 6
  - symbol: C  # 7
    coordinates: [  0.377149893938402,  0.127228387903784,  0.376234493591674 ]
    mass: 12.010700
    reduced_to: 7
  - symbol: C  # 8
    coordinates: [  0.125095821321459,  0.625086144294634,  0.625086211294636 ]
    mass: 12.010700
    reduced_to: 8
  - symbol: C  # 9
    coordinates: [  0.875142468352593,  0.875542202623805,  0.624324247261413 ]
    mass: 12.010700
    reduced_to: 9
  - symbol: C  # 10
    coordinates: [  0.623765506408326,  0.127228412903783,  0.622850140061601 ]
    mass: 12.010700
    reduced_to: 10
  - symbol: C  # 11
    coordinates: [  0.366502588241666,  0.370151019554363,  0.633497445758330 ]
    mass: 12.010700
    reduced_to: 11
  - symbol: C  # 12
    coordinates: [  0.125068558488088,  0.874931474511911,  0.874931474511911 ]
    mass: 12.010700
    reduced_to: 12
  - symbol: C  # 13
    coordinates: [  0.874830860546311,  0.125169156453687,  0.874082055628101 ]
    mass: 12.010700
    reduced_to: 13
  - symbol: C  # 14
    coordinates: [  0.624474328910942,  0.375525671089058,  0.873919957983389 ]
    mass: 12.010700
    reduced_to: 14
  - symbol: C  # 15
    coordinates: [  0.876445257140809,  0.374669519474992,  0.123554792859188 ]
    mass: 12.010700
    reduced_to: 15
  - symbol: C  # 16
    coordinates: [  0.374913822705366,  0.625086211294636,  0.874904228678545 ]
    mass: 12.010700
    reduced_to: 16
  - symbol: C  # 17
    coordinates: [  0.366502588241666,  0.633497445758330,  0.370151053554366 ]
    mass: 12.010700
    reduced_to: 17
  - symbol: C  # 18
    coordinates: [  0.124079935166996,  0.875920047832999,  0.376012190133238 ]
    mass: 12.010700
    reduced_to: 18
  - symbol: C  # 19
    coordinates: [  0.872771654096212,  0.376234493591674,  0.622850140061601 ]
    mass: 12.010700
    reduced_to: 19
  - symbol: C  # 20
    coordinates: [  0.629848980445637,  0.633497378758335,  0.633497445758330 ]
    mass: 12.010700
    reduced_to: 20
  - symbol: C  # 21
    coordinates: [  0.374913822705366,  0.874904094678541,  0.625086211294636 ]
    mass: 12.010700
    reduced_to: 21
  - symbol: C  # 22
    coordinates: [  0.124457780376197,  0.124857581647412,  0.624324314261415 ]
    mass: 12.010700
    reduced_to: 22
  - symbol: C  # 23
    coordinates: [  0.875142468352593,  0.624324180261411,  0.875542269623807 ]
    mass: 12.010700
    reduced_to: 23
  - symbol: C  # 24
    coordinates: [  0.623987843866765,  0.875920114833001,  0.875920114833001 ]
    mass: 12.010700
    reduced_to: 24
  - symbol: C  # 25
    coordinates: [  0.375675786738590,  0.124857581647412,  0.875542202623805 ]
    mass: 12.010700
    reduced_to: 25
  - symbol: C  # 26
    coordinates: [  0.124079952167001,  0.376012156133236,  0.875920114833001 ]
    mass: 12.010700
    reduced_to: 26
  - symbol: C  # 27
    coordinates: [  0.874830860546311,  0.874081988628099,  0.125169189453686 ]
    mass: 12.010700
    reduced_to: 27
  - symbol: C  # 28
    coordinates: [  0.625330480525008,  0.123554792859188,  0.123554809859201 ]
    mass: 12.010700
    reduced_to: 28
  - symbol: C  # 29
    coordinates: [  0.377149893938402,  0.376234493591674,  0.127228412903783 ]
    mass: 12.010700
    reduced_to: 29
  - symbol: C  # 30
    coordinates: [  0.876445257140809,  0.123554750859199,  0.374669586474994 ]
    mass: 12.010700
    reduced_to: 30
  - symbol: C  # 31
    coordinates: [  0.124457763376192,  0.624324247261413,  0.124857598647409 ]
    mass: 12.010700
    reduced_to: 31
  - symbol: C  # 32
    coordinates: [  0.125917994371896,  0.125169189453686,  0.125169206453691 ]
    mass: 12.010700
    reduced_to: 32
  - symbol: C  # 33
    coordinates: [  0.251080242591286,  0.250416885891802,  0.000890956410728 ]
    mass: 12.010700
    reduced_to: 33
  - symbol: C  # 34
    coordinates: [  0.750039329593349,  0.249960703406657,  0.998721311611014 ]
    mass: 12.010700
    reduced_to: 34
  - symbol: C  # 35
    coordinates: [  0.499863855843444,  0.500136144156556,  0.000127424105564 ]
    mass: 12.010700
    reduced_to: 35
  - symbol: C  # 36
    coordinates: [  0.250103430954375,  0.749896536045625,  0.000287563330211 ]
    mass: 12.010700
    reduced_to: 36
  - symbol: C  # 37
    coordinates: [  0.001278688388986,  0.249960703406657,  0.249960736406656 ]
    mass: 12.010700
    reduced_to: 37
  - symbol: C  # 38
    coordinates: [  0.749608611616573,  0.494310167509518,  0.250391454383433 ]
    mass: 12.010700
    reduced_to: 38
  - symbol: C  # 39
    coordinates: [  0.498569946971351,  0.747991981309248,  0.252832674611618 ]
    mass: 12.010700
    reduced_to: 39
  - symbol: C  # 40
    coordinates: [  0.251080242591286,  0.000890956410728,  0.250416885891802 ]
    mass: 12.010700
    reduced_to: 40
  - symbol: C  # 41
    coordinates: [  0.999872575894436,  0.500136144156556,  0.500136211156558 ]
    mass: 12.010700
    reduced_to: 41
  - symbol: C  # 42
    coordinates: [  0.747167358388381,  0.747991981309248,  0.501430120028644 ]
    mass: 12.010700
    reduced_to: 42
  - symbol: C  # 43
    coordinates: [  0.499863855843444,  0.000127424105564,  0.500136144156556 ]
    mass: 12.010700
    reduced_to: 43
  - symbol: C  # 44
    coordinates: [  0.252008018690752,  0.252832657611620,  0.501430120028644 ]
    mass: 12.010700
    reduced_to: 44
  - symbol: C  # 45
    coordinates: [  0.999712436669789,  0.749896536045625,  0.749896536045625 ]
    mass: 12.010700
    reduced_to: 45
  - symbol: C  # 46
    coordinates: [  0.749583147108197,  0.000890956410728,  0.748919724408715 ]
    mass: 12.010700
    reduced_to: 46
  - symbol: C  # 47
    coordinates: [  0.999967056687787,  0.499959854779306,  0.000032943312213 ]
    mass: 12.010700
    reduced_to: 47
  - symbol: C  # 48
    coordinates: [  0.498569946971351,  0.252832641611619,  0.747992047309246 ]
    mass: 12.010700
    reduced_to: 48
  - symbol: C  # 49
    coordinates: [  0.750039329593349,  0.998721311611014,  0.249960736406656 ]
    mass: 12.010700
    reduced_to: 49
  - symbol: C  # 50
    coordinates: [  0.505689832490482,  0.250391454383433,  0.250391421383434 ]
    mass: 12.010700
    reduced_to: 50
  - symbol: C  # 51
    coordinates: [  0.252007985690753,  0.501430053028649,  0.252832707611617 ]
    mass: 12.010700
    reduced_to: 51
  - symbol: C  # 52
    coordinates: [  0.999109043589272,  0.748919724408715,  0.250416918891808 ]
    mass: 12.010700
    reduced_to: 52
  - symbol: C  # 53
    coordinates: [  0.749608611616573,  0.250391404383429,  0.494310234509520 ]
    mass: 12.010700
    reduced_to: 53
  - symbol: C  # 54
    coordinates: [  0.250388929741938,  0.749611037258056,  0.499459475369235 ]
    mass: 12.010700
    reduced_to: 54
  - symbol: C  # 55
    coordinates: [  0.999967056687787,  0.000032943312213,  0.499959854779306 ]
    mass: 12.010700
    reduced_to: 55
  - symbol: C  # 56
    coordinates: [  0.747167358388381,  0.501430053028649,  0.747991981309248 ]
    mass: 12.010700
    reduced_to: 56
  - symbol: C  # 57
    coordinates: [  0.500540658630761,  0.749611037258056,  0.749611037258056 ]
    mass: 12.010700
    reduced_to: 57
  - symbol: C  # 58
    coordinates: [  0.250103463954375,  0.000287563330211,  0.749896602045624 ]
    mass: 12.010700
    reduced_to: 58
  - symbol: C  # 59
    coordinates: [  0.999109043589272,  0.250416885891802,  0.748919724408715 ]
    mass: 12.010700
    reduced_to: 59
  - symbol: C  # 60
    coordinates: [  0.749583147108197,  0.748919724408715,  0.000890956410728 ]
    mass: 12.010700
    reduced_to: 60
  - symbol: C  # 61
    coordinates: [  0.500040145220694,  0.000032943312213,  0.000032943312213 ]
    mass: 12.010700
    reduced_to: 61
  - symbol: C  # 62
    coordinates: [  0.250388929741938,  0.499459375369234,  0.749611103258061 ]
    mass: 12.010700
    reduced_to: 62
  - symbol: N  # 63
    coordinates: [  0.636002766085966,  0.363997233914034,  0.363997233914034 ]
    mass: 14.006700
    reduced_to: 63
