nqpoint: 1      
natom:   63     
reciprocal_lattice:
- [   0.14012298,   0.00000000,   0.00000000 ] # a*
- [   0.00000000,   0.14012298,   0.00000000 ] # b*
- [   0.00000000,   0.00000000,   0.14012298 ] # c*
phonon:
- q-position: [    0.0000000,    0.0000000,    0.0000000 ]
  dynamical_matrix:
  - [   -0.0000050141,    0.0000000000,   -0.1027414210,    0.0000000000,    0.0726485500,    0.0000000000,    0.0000000000,    0.0000000000,   -0.0237525231,    0.0000000000,    0.0267957875,    0.0000000000,   -0.0000000000,    0.0000000000,    0.0295471599,    0.0000000000,   -0.0000000000,    0.0000000000,   -0.0297901489,    0.0000000000,    0.0000004742,    0.0000000000,    0.0189827048,    0.0000000000,   -0.0000204292,    0.0000000000,   -0.0000000000,    0.0000000000,    0.1386460702,    0.0000000000,    0.0062846513,    0.0000000000,   -0.1354612566,    0.0000000000,   -0.0000000000,    0.0000000000,   -0.0864822235,    0.0000000000,    0.0153090162,    0.0000000000,   -0.1031785402,    0.0000000000,    0.1977750887,    0.0000000000,    0.0000020146,    0.0000000000,   -0.0000000518,    0.0000000000,    0.0602882010,    0.0000000000,    0.1593542451,    0.0000000000,   -0.0000490370,    0.0000000000,   -0.1925099368,    0.0000000000,    0.0001177652,    0.0000000000,    0.0526654139,    0.0000000000,    0.0000000000,    0.0000000000,    0.0000000000,    0.0000000000,   -0.0000444577,    0.0000000000,    0.0198709539,    0.0000000000,   -0.0000000000,    0.0000000000,    0.0003288260,    0.0000000000,    0.0000286850,    0.0000000000,    0.0282712152,    0.0000000000,   -0.0238706111,    0.0000000000,    0.0000001640,    0.0000000000,    0.0042794301,    0.0000000000,   -0.2161901066,    0.0000000000,    0.0000000000,    0.0000000000,    0.1569038205,    0.0000000000,   -0.0547305212,    0.0000000000,    0.0000000000,    0.0000000000,    0.0723224147,    0.0000000000,    0.0000000000,    0.0000000000,   -0.0303964232,    0.0000000000,   -0.0021049063,    0.0000000000,    0.0760569285,    0.0000000000,    0.0000000000,    0.0000000000,   -0.0000000000,    0.0000000000,    0.0000000000,    0.0000000000,   -0.0929959002,    0.0000000000,    0.0000000000,    0.0000000000,    0.0273972696,    0.0000000000,    0.0000000000,    0.0000000000,   -0.0694091327,    0.0000000000,    0.0061145007,    0.0000000000,   -0.0000000003,    0.0000000000,   -0.1099171391,    0.0000000000,    0.0000000000,    0.0000000000,   -0.0317514573,    0.0000000000,    0.0112030316,    0.0000000000,    0.0000000000,    0.0000000000,   -0.0906263492,    0.0000000000,    0.0416405706,    0.0000000000,    0.0000000000,    0.0000000000,   -0.0000000000,    0.0000000000,   -0.0653332081,    0.0000000000,    0.2833328334,    0.0000000000,   -0.0000000000,    0.0000000000,   -0.1882071258,    0.0000000000,    0.0193534314,    0.0000000000,   -0.0000000000,    0.0000000000,   -0.0452818956,    0.0000000000,    0.0000000000,    0.0000000000,    0.1066707526,    0.0000000000,    0.0000000000,    0.0000000000,    0.0000000000,    0.0000000000,   -0.0071118224,    0.0000000000,    0.0000000000,    0.0000000000,    0.0761132422,    0.0000000000,    0.0000000000,    0.0000000000,   -0.0137726390,    0.0000000000,    0.0000000000,    0.0000000000,    0.1247454666,    0.0000000000,   -0.0000000000,    0.0000000000,    0.0000000000,    0.0000000000,   -0.0473438493,    0.0000000000,    0.0096160452,    0.0000000000,   -0.0000000000,    0.0000000000,   -0.1805946981,    0.0000000000,    0.0000000000,    0.0000000000,    0.1158006395,    0.0000000000,    0.0000000043,    0.0000000000,   -0.0511331238,    0.0000000000,    0.0731868366,    0.0000000000,   -0.0000000000,    0.0000000000,   -0.0082738355,    0.0000000000,    0.0000000005,    0.0000000000,   -0.0000014713,    0.0000000000,    0.1516333768,    0.0000000000,   -0.0967322669,    0.0000000000,    0.0373731311,    0.0000000000,    0.0000000000,    0.0000000000,   -0.0105150293,    0.0000000000,    0.0016756940,    0.0000000000,   -0.0524857411,    0.0000000000,    0.0000000000,    0.0000000000,    0.0881723964,    0.0000000000,    0.0000000000,    0.0000000000,   -0.0000000000,    0.0000000000,   -0.0613870006,    0.0000000000,    0.0000000000,    0.0000000000,    0.0240343808,    0.0000000000,    0.0000000000,    0.0000000000,    0.0000000000,    0.0000000000,   -0.0204105971,    0.0000000000,    0.0000000000,    0.0000000000,   -0.0041970707,    0.0000000000,   -0.0000000000,    0.0000000000,    0.0000000000,    0.0000000000,    0.1032238569,    0.0000000000,    0.0000000000,    0.0000000000,    0.0000000000,    0.0000000000,   -0.1206217271,    0.0000000000,   -0.2320451915,    0.0000000000,    0.0000000000,    0.0000000000,    0.2666890814,    0.0000000000,    0.0000000000,    0.0000000000,   -0.0219794690,    0.0000000000,   -0.1776236855,    0.0000000000,    0.0000000000,    0.0000000000,    0.0000000000,    0.0000000000,    0.0879968866,    0.0000000000,   -0.1047790540,    0.0000000000,    0.0000000000,    0.0000000000,   -0.0766593850,    0.0000000000,    0.0000000000,    0.0000000000,    0.0079134649,    0.0000000000,    0.1710642897,    0.0000000000,    0.0000000000,    0.0000000000,   -0.0362746228,    0.0000000000,    0.0000000000,    0.0000000000,   -0.1341704644,    0.0000000000,    0.0530919577,    0.0000000000,    0.0000000000,    0.0000000000,   -0.0550579456,    0.0000000000,    0.0000000000,    0.0000000000,    0.0000000000,    0.0000000000,   -0.0162633845,    0.0000000000,    0.0000000000,    0.0000000000,    0.0000000000,    0.0000000000,   -0.0043232461,    0.0000000000,    0.0792273398,    0.0000000000,    0.0000000000,    0.0000000000,   -0.1202194683,    0.0000000000,   -0.0013389395,    0.0000000000,    0.0000000000,    0.0000000000,    0.0984896764,    0.0000000000,    0.0000000000,    0.0000000000,    0.0000000000,    0.0000000000,    0.0468631063,    0.0000000000,   -0.0172856724,    0.0000000000,    0.0000000000,    0.0000000000,    0.0340587251,    0.0000000000,    0.0000000000,    0.0000000000,   -0.1166000240,    0.0000000000,    0.0000000000,    0.0000000000,    0.0054429718,    0.0000000000,   -0.0116864961,    0.0000000000,   -0.0000000012,    0.0000000000,    0.1718906335,    0.0000000000,   -0.1908344848,    0.0000000000,    0.0135192309,    0.0000000000,    0.0000000000,    0.0000000000,   -0.0000000027,    0.0000000000,   -0.0146040967,    0.0000000000,    0.0184550415,    0.0000000000,    0.0000000000,    0.0000000000,    0.1904041944,    0.0000000000,   -0.0000000000,    0.0000000000,    0.0184247417,    0.0000000000,   -0.1204416908,    0.0000000000,    0.0000000000,    0.0000000000,   -0.0232852525,    0.0000000000,   -0.0511347281,    0.0000000000 ]
  - [   -0.0889791440,    0.0000000000,   -0.0513662990,    0.0000000000,   -0.0726486524,    0.0000000000,   -0.0205702884,    0.0000000000,   -0.0118762616,    0.0000000000,   -0.0267957875,    0.0000000000,   -0.0255885911,    0.0000000000,    0.0147735799,    0.0000000000,   -0.0000000000,    0.0000000000,   -0.0148954851,    0.0000000000,   -0.0257987886,    0.0000000000,    0.0094736602,    0.0000000000,   -0.0164497192,    0.0000000000,   -0.0000000000,    0.0000000000,    0.0638803674,    0.0000000000,    0.1232133446,    0.0000000000,    0.1354612566,    0.0000000000,    0.0000000000,    0.0000000000,   -0.0299831149,    0.0000000000,    0.0825503106,    0.0000000000,    0.1031785402,    0.0000000000,    0.0988892890,    0.0000000000,   -0.1712772438,    0.0000000000,   -0.0522111395,    0.0000000000,    0.0301440556,    0.0000000000,   -0.1593542451,    0.0000000000,    0.1666939772,    0.0000000000,   -0.0962974357,    0.0000000000,   -0.0455507037,    0.0000000000,    0.0264346946,    0.0000000000,    0.0000000000,    0.0000000000,   -0.0000000000,    0.0000000000,    0.0171865220,    0.0000000000,    0.0099739784,    0.0000000000,   -0.0000000000,    0.0000000000,   -0.0003288260,    0.0000000000,   -0.0244692481,    0.0000000000,    0.0141604495,    0.0000000000,    0.0238706111,    0.0000000000,    0.0037061771,    0.0000000000,    0.0021395730,    0.0000000000,   -0.1080950533,    0.0000000000,   -0.1872261244,    0.0000000000,   -0.1569038205,    0.0000000000,   -0.0273652606,    0.0000000000,    0.0473980217,    0.0000000000,   -0.0723224147,    0.0000000000,   -0.0263240747,    0.0000000000,   -0.0151982116,    0.0000000000,    0.0021049063,    0.0000000000,    0.0380284642,    0.0000000000,    0.0658672322,    0.0000000000,    0.0000000000,    0.0000000000,    0.0000000000,    0.0000000000,   -0.0464979501,    0.0000000000,   -0.0805368120,    0.0000000000,    0.0136986348,    0.0000000000,    0.0237267315,    0.0000000000,    0.0694091327,    0.0000000000,   -0.0061145007,    0.0000000000,   -0.0951910350,    0.0000000000,   -0.0549585693,    0.0000000000,    0.0000000000,    0.0000000000,    0.0317514573,    0.0000000000,    0.0056015158,    0.0000000000,    0.0097021099,    0.0000000000,    0.0906263492,    0.0000000000,    0.0208202853,    0.0000000000,   -0.0360617920,    0.0000000000,   -0.0565802179,    0.0000000000,   -0.0326666041,    0.0000000000,    0.1416664167,    0.0000000000,   -0.2453734315,    0.0000000000,    0.1882071258,    0.0000000000,    0.0096767157,    0.0000000000,   -0.0167605633,    0.0000000000,    0.0452818956,    0.0000000000,   -0.0000000000,    0.0000000000,    0.0533353763,    0.0000000000,   -0.0923795816,    0.0000000000,    0.0000000000,    0.0000000000,   -0.0035559112,    0.0000000000,   -0.0061590189,    0.0000000000,   -0.0761132422,    0.0000000000,    0.0000000000,    0.0000000000,   -0.0068863195,    0.0000000000,    0.0119274552,    0.0000000000,   -0.1247454666,    0.0000000000,    0.0000000000,    0.0000000000,    0.0410009762,    0.0000000000,   -0.0236719246,    0.0000000000,    0.0048080226,    0.0000000000,    0.0083277394,    0.0000000000,   -0.0902973491,    0.0000000000,   -0.1563995964,    0.0000000000,    0.0579003160,    0.0000000000,    0.1002862977,    0.0000000000,    0.0511331238,    0.0000000000,   -0.0731868366,    0.0000000000,   -0.0000000000,    0.0000000000,   -0.0041369182,    0.0000000000,   -0.0071653514,    0.0000000000,    0.1313176207,    0.0000000000,    0.0758179626,    0.0000000000,    0.0967322669,    0.0000000000,    0.0186865656,    0.0000000000,   -0.0323660810,    0.0000000000,    0.0105150293,    0.0000000000,   -0.0016756940,    0.0000000000,   -0.0262428706,    0.0000000000,   -0.0454539852,    0.0000000000,    0.0440861982,    0.0000000000,   -0.0763595352,    0.0000000000,    0.0000000000,    0.0000000000,   -0.0306935003,    0.0000000000,   -0.0531627019,    0.0000000000,    0.0120171904,    0.0000000000,   -0.0208143843,    0.0000000000,    0.0000000000,    0.0000000000,   -0.0102052985,    0.0000000000,    0.0176760956,    0.0000000000,    0.0041970707,    0.0000000000,    0.0000000000,    0.0000000000,   -0.0000000000,    0.0000000000,    0.0516119284,    0.0000000000,    0.0893944823,    0.0000000000,    0.1044614799,    0.0000000000,   -0.0603108635,    0.0000000000,    0.2320451915,    0.0000000000,    0.0000000000,    0.0000000000,    0.1333445407,    0.0000000000,    0.2309595194,    0.0000000000,    0.0219794690,    0.0000000000,   -0.0888118427,    0.0000000000,   -0.1538266239,    0.0000000000,   -0.0000000000,    0.0000000000,   -0.0879968866,    0.0000000000,   -0.0523895270,    0.0000000000,    0.0907413226,    0.0000000000,   -0.0383296925,    0.0000000000,    0.0663889749,    0.0000000000,   -0.0079134649,    0.0000000000,    0.0855321448,    0.0000000000,    0.1481460205,    0.0000000000,   -0.0181373114,    0.0000000000,   -0.0314147449,    0.0000000000,    0.1341704644,    0.0000000000,    0.0265459788,    0.0000000000,   -0.0459789841,    0.0000000000,   -0.0275289728,    0.0000000000,   -0.0476815796,    0.0000000000,    0.0000000000,    0.0000000000,   -0.0081316922,    0.0000000000,   -0.0140845041,    0.0000000000,   -0.0000000000,    0.0000000000,    0.0043232461,    0.0000000000,    0.0396136699,    0.0000000000,    0.0686128889,    0.0000000000,    0.1202194683,    0.0000000000,   -0.0006694698,    0.0000000000,   -0.0011595557,    0.0000000000,    0.0492448382,    0.0000000000,    0.0852945618,    0.0000000000,   -0.0000000000,    0.0000000000,   -0.0468631063,    0.0000000000,   -0.0086428362,    0.0000000000,    0.0149698314,    0.0000000000,   -0.0340587251,    0.0000000000,    0.1009785829,    0.0000000000,   -0.0583000120,    0.0000000000,   -0.0047137518,    0.0000000000,    0.0027214859,    0.0000000000,    0.0116864961,    0.0000000000,   -0.1488616559,    0.0000000000,    0.0859453157,    0.0000000000,    0.1908344848,    0.0000000000,   -0.0135192309,    0.0000000000,    0.0000000000,    0.0000000000,    0.0126475174,    0.0000000000,   -0.0073020507,    0.0000000000,   -0.0184550415,    0.0000000000,   -0.1648948693,    0.0000000000,    0.0952020972,    0.0000000000,    0.0159562943,    0.0000000000,    0.0092123708,    0.0000000000,    0.1204416908,    0.0000000000,    0.0201656202,    0.0000000000,   -0.0116426262,    0.0000000000,    0.0511347281,    0.0000000000 ]
  - [    0.0889741356,    0.0000000000,   -0.0513749805,    0.0000000000,   -0.0726486477,    0.0000000000,    0.0205702884,    0.0000000000,   -0.0118762616,    0.0000000000,   -0.0267957875,    0.0000000000,    0.0255885911,    0.0000000000,    0.0147735799,    0.0000000000,   -0.0000000000,    0.0000000000,   -0.0148946637,    0.0000000000,    0.0257992628,    0.0000000000,    0.0095090446,    0.0000000000,    0.0164292900,    0.0000000000,    0.0000000000,    0.0000000000,    0.0747657028,    0.0000000000,   -0.1169286933,    0.0000000000,    0.1354612566,    0.0000000000,   -0.0000000000,    0.0000000000,   -0.0564991087,    0.0000000000,   -0.0672412945,    0.0000000000,    0.1031785402,    0.0000000000,    0.0988857997,    0.0000000000,    0.1712792583,    0.0000000000,    0.0522110877,    0.0000000000,    0.0301441454,    0.0000000000,   -0.1593542451,    0.0000000000,   -0.1667430143,    0.0000000000,   -0.0962125011,    0.0000000000,    0.0456684690,    0.0000000000,    0.0262307193,    0.0000000000,    0.0000000000,    0.0000000000,    0.0000000000,    0.0000000000,   -0.0172309797,    0.0000000000,    0.0098969754,    0.0000000000,    0.0000000000,    0.0000000000,   -0.0003288260,    0.0000000000,    0.0244979331,    0.0000000000,    0.0141107657,    0.0000000000,    0.0238706111,    0.0000000000,   -0.0037060132,    0.0000000000,    0.0021398570,    0.0000000000,   -0.1080950533,    0.0000000000,    0.1872261244,    0.0000000000,   -0.1569038205,    0.0000000000,   -0.0273652606,    0.0000000000,   -0.0473980217,    0.0000000000,   -0.0723224147,    0.0000000000,    0.0263240747,    0.0000000000,   -0.0151982116,    0.0000000000,    0.0021049063,    0.0000000000,    0.0380284642,    0.0000000000,   -0.0658672322,    0.0000000000,   -0.0000000000,    0.0000000000,    0.0000000000,    0.0000000000,   -0.0464979501,    0.0000000000,    0.0805368120,    0.0000000000,    0.0136986348,    0.0000000000,   -0.0237267315,    0.0000000000,    0.0694091327,    0.0000000000,   -0.0061145007,    0.0000000000,    0.0951910347,    0.0000000000,   -0.0549585698,    0.0000000000,   -0.0000000000,    0.0000000000,    0.0317514573,    0.0000000000,    0.0056015158,    0.0000000000,   -0.0097021099,    0.0000000000,    0.0906263492,    0.0000000000,    0.0208202853,    0.0000000000,    0.0360617920,    0.0000000000,    0.0565802179,    0.0000000000,   -0.0326666041,    0.0000000000,    0.1416664167,    0.0000000000,    0.2453734315,    0.0000000000,    0.1882071258,    0.0000000000,    0.0096767157,    0.0000000000,    0.0167605633,    0.0000000000,    0.0452818956,    0.0000000000,   -0.0000000000,    0.0000000000,    0.0533353763,    0.0000000000,    0.0923795816,    0.0000000000,   -0.0000000000,    0.0000000000,   -0.0035559112,    0.0000000000,    0.0061590189,    0.0000000000,   -0.0761132422,    0.0000000000,   -0.0000000000,    0.0000000000,   -0.0068863195,    0.0000000000,   -0.0119274552,    0.0000000000,   -0.1247454666,    0.0000000000,    0.0000000000,    0.0000000000,   -0.0410009762,    0.0000000000,   -0.0236719246,    0.0000000000,    0.0048080226,    0.0000000000,   -0.0083277394,    0.0000000000,   -0.0902973491,    0.0000000000,    0.1563995964,    0.0000000000,    0.0579003235,    0.0000000000,   -0.1002862934,    0.0000000000,    0.0511331238,    0.0000000000,   -0.0731868366,    0.0000000000,   -0.0000000000,    0.0000000000,   -0.0041369173,    0.0000000000,    0.0071653520,    0.0000000000,   -0.1313190921,    0.0000000000,    0.0758154142,    0.0000000000,    0.0967322669,    0.0000000000,    0.0186865655,    0.0000000000,    0.0323660810,    0.0000000000,    0.0105150293,    0.0000000000,   -0.0016756940,    0.0000000000,   -0.0262428706,    0.0000000000,    0.0454539852,    0.0000000000,    0.0440861982,    0.0000000000,    0.0763595352,    0.0000000000,   -0.0000000000,    0.0000000000,   -0.0306935003,    0.0000000000,    0.0531627019,    0.0000000000,    0.0120171904,    0.0000000000,    0.0208143843,    0.0000000000,   -0.0000000000,    0.0000000000,   -0.0102052985,    0.0000000000,   -0.0176760956,    0.0000000000,    0.0041970707,    0.0000000000,   -0.0000000000,    0.0000000000,    0.0000000000,    0.0000000000,    0.0516119284,    0.0000000000,   -0.0893944823,    0.0000000000,   -0.1044614799,    0.0000000000,   -0.0603108635,    0.0000000000,    0.2320451915,    0.0000000000,   -0.0000000000,    0.0000000000,    0.1333445407,    0.0000000000,   -0.2309595194,    0.0000000000,    0.0219794690,    0.0000000000,   -0.0888118427,    0.0000000000,    0.1538266239,    0.0000000000,    0.0000000000,    0.0000000000,   -0.0879968866,    0.0000000000,   -0.0523895270,    0.0000000000,   -0.0907413226,    0.0000000000,   -0.0383296925,    0.0000000000,   -0.0663889749,    0.0000000000,   -0.0079134649,    0.0000000000,    0.0855321448,    0.0000000000,   -0.1481460205,    0.0000000000,   -0.0181373114,    0.0000000000,    0.0314147449,    0.0000000000,    0.1341704644,    0.0000000000,    0.0265459788,    0.0000000000,    0.0459789841,    0.0000000000,   -0.0275289728,    0.0000000000,    0.0476815796,    0.0000000000,   -0.0000000000,    0.0000000000,   -0.0081316922,    0.0000000000,    0.0140845041,    0.0000000000,    0.0000000000,    0.0000000000,    0.0043232461,    0.0000000000,    0.0396136699,    0.0000000000,   -0.0686128889,    0.0000000000,    0.1202194683,    0.0000000000,   -0.0006694698,    0.0000000000,    0.0011595557,    0.0000000000,    0.0492448382,    0.0000000000,   -0.0852945618,    0.0000000000,    0.0000000000,    0.0000000000,   -0.0468631063,    0.0000000000,   -0.0086428362,    0.0000000000,   -0.0149698314,    0.0000000000,   -0.0340587251,    0.0000000000,   -0.1009785829,    0.0000000000,   -0.0583000120,    0.0000000000,    0.0047137518,    0.0000000000,    0.0027214859,    0.0000000000,    0.0116864961,    0.0000000000,    0.1488616547,    0.0000000000,    0.0859453178,    0.0000000000,    0.1908344848,    0.0000000000,   -0.0135192309,    0.0000000000,    0.0000000000,    0.0000000000,   -0.0126475201,    0.0000000000,   -0.0073020460,    0.0000000000,   -0.0184550415,    0.0000000000,    0.1648948693,    0.0000000000,    0.0952020972,    0.0000000000,   -0.0159562943,    0.0000000000,    0.0092123708,    0.0000000000,    0.1204416908,    0.0000000000,   -0.0201656202,    0.0000000000,   -0.0116426262,    0.0000000000,    0.0511347281,    0.0000000000 ]
  - [   -0.0000043434,    0.0000000000,   -0.1027378759,    0.0000000000,    0.0726452438,    0.0000000000,   -0.0894728975,    0.0000000000,   -0.0421820837,    0.0000000000,   -0.0027495973,    0.0000000000,    0.0388357398,    0.0000000000,   -0.0512768395,    0.0000000000,    0.0793045210,    0.0000000000,   -0.1063765032,    0.0000000000,    0.0567872091,    0.0000000000,    0.0634857074,    0.0000000000,   -0.0854240203,    0.0000000000,    0.0227616415,    0.0000000000,   -0.0223868659,    0.0000000000,   -0.0300561214,    0.0000000000,   -0.0020190646,    0.0000000000,    0.1025729478,    0.0000000000,    0.0804153896,    0.0000000000,    0.1090328311,    0.0000000000,   -0.0040402776,    0.0000000000,    0.0971289014,    0.0000000000,    0.0462177752,    0.0000000000,   -0.0756265323,    0.0000000000,    0.0659676112,    0.0000000000,   -0.0010321002,    0.0000000000,    0.0784410980,    0.0000000000,   -0.0056630155,    0.0000000000,   -0.1023014685,    0.0000000000,    0.0267595203,    0.0000000000,    0.1598232790,    0.0000000000,    0.1054968112,    0.0000000000,   -0.0453604570,    0.0000000000,    0.0084257318,    0.0000000000,    0.0931950448,    0.0000000000,    0.0047427779,    0.0000000000,    0.0157434584,    0.0000000000,    0.0253394576,    0.0000000000,    0.0047449758,    0.0000000000,   -0.0096859560,    0.0000000000,    0.0726984108,    0.0000000000,    0.0981185472,    0.0000000000,    0.0098425460,    0.0000000000,   -0.0904679081,    0.0000000000,    0.0797033449,    0.0000000000,    0.0004496392,    0.0000000000,   -0.1753710942,    0.0000000000,    0.0161084338,    0.0000000000,    0.0092900694,    0.0000000000,    0.0030813710,    0.0000000000,    0.1735555532,    0.0000000000,    0.0121344477,    0.0000000000,    0.0096484273,    0.0000000000,   -0.0057527075,    0.0000000000,    0.1410328659,    0.0000000000,   -0.0115338965,    0.0000000000,    0.1134617713,    0.0000000000,   -0.0023791528,    0.0000000000,    0.0416477880,    0.0000000000,   -0.0236209712,    0.0000000000,   -0.1003675064,    0.0000000000,    0.0573762284,    0.0000000000,    0.0102268630,    0.0000000000,   -0.0070760751,    0.0000000000,   -0.0552713656,    0.0000000000,   -0.0985992978,    0.0000000000,   -0.0009895525,    0.0000000000,    0.0122844336,    0.0000000000,    0.0022836778,    0.0000000000,    0.1643616457,    0.0000000000,   -0.0444415461,    0.0000000000,   -0.0695223592,    0.0000000000,    0.1095731729,    0.0000000000,   -0.1124428317,    0.0000000000,    0.0125069001,    0.0000000000,   -0.0181189482,    0.0000000000,   -0.0133854557,    0.0000000000,   -0.0549849535,    0.0000000000,    0.0748418865,    0.0000000000,    0.0573838261,    0.0000000000,    0.0207722159,    0.0000000000,    0.1536057715,    0.0000000000,    0.0218105759,    0.0000000000,   -0.0620009289,    0.0000000000,    0.0394805007,    0.0000000000,   -0.0014303463,    0.0000000000,   -0.0321625568,    0.0000000000,   -0.0223008362,    0.0000000000,    0.1311794429,    0.0000000000,   -0.0648454674,    0.0000000000,   -0.0037055834,    0.0000000000,    0.0071603175,    0.0000000000,    0.1856381564,    0.0000000000,    0.0008878900,    0.0000000000,   -0.0150210711,    0.0000000000,    0.0145058940,    0.0000000000,    0.0316189332,    0.0000000000,   -0.1463852841,    0.0000000000,    0.0228965035,    0.0000000000,    0.0481415432,    0.0000000000,    0.1226518707,    0.0000000000,   -0.0221899472,    0.0000000000,    0.0128313585,    0.0000000000,   -0.0466603547,    0.0000000000,   -0.0670473563,    0.0000000000,   -0.0819656850,    0.0000000000,   -0.0490259628,    0.0000000000,   -0.0124966762,    0.0000000000,    0.0957319623,    0.0000000000,   -0.0358449865,    0.0000000000,   -0.0623778126,    0.0000000000,    0.0108094249,    0.0000000000,    0.0046327610,    0.0000000000,   -0.1622510193,    0.0000000000,   -0.0683583745,    0.0000000000,    0.0995057712,    0.0000000000,    0.0130354085,    0.0000000000,    0.0612092142,    0.0000000000,    0.0160815094,    0.0000000000,   -0.0348808776,    0.0000000000,    0.0354793049,    0.0000000000,   -0.0486637321,    0.0000000000,    0.0178953231,    0.0000000000,   -0.1258027298,    0.0000000000,   -0.0696524014,    0.0000000000,    0.0682773520,    0.0000000000,    0.1002830807,    0.0000000000,   -0.0516975290,    0.0000000000,   -0.0360494884,    0.0000000000,   -0.0394429200,    0.0000000000,    0.0732177075,    0.0000000000,   -0.0364458096,    0.0000000000,    0.1055913371,    0.0000000000,    0.1466539815,    0.0000000000,    0.1711359864,    0.0000000000,    0.0922800913,    0.0000000000,    0.0226478707,    0.0000000000,    0.0193766597,    0.0000000000,    0.0713320628,    0.0000000000,    0.0730333793,    0.0000000000,   -0.0181461999,    0.0000000000,   -0.0073179787,    0.0000000000,    0.0008122434,    0.0000000000,    0.1105539247,    0.0000000000,   -0.0297470682,    0.0000000000,    0.1282416780,    0.0000000000,    0.0170500125,    0.0000000000,   -0.0076983880,    0.0000000000,   -0.1069141292,    0.0000000000,   -0.0114743239,    0.0000000000,    0.0522365429,    0.0000000000,    0.1060846542,    0.0000000000,    0.0278874393,    0.0000000000,   -0.1792461279,    0.0000000000,    0.0781951236,    0.0000000000,   -0.0038140042,    0.0000000000,    0.0528172387,    0.0000000000,    0.0612791370,    0.0000000000,    0.0712194055,    0.0000000000,    0.0255294688,    0.0000000000,   -0.0118170636,    0.0000000000,    0.0495418078,    0.0000000000,   -0.0903790214,    0.0000000000,    0.0830516190,    0.0000000000,   -0.0420047364,    0.0000000000,   -0.1065493068,    0.0000000000,   -0.0239698694,    0.0000000000,    0.0646392488,    0.0000000000,    0.0632166331,    0.0000000000,   -0.0347565859,    0.0000000000,    0.0385407033,    0.0000000000,    0.0148268891,    0.0000000000,   -0.1111279383,    0.0000000000,   -0.0063344680,    0.0000000000,    0.0244585112,    0.0000000000,    0.0609407716,    0.0000000000,    0.0839636172,    0.0000000000,    0.0462803981,    0.0000000000,   -0.0151308030,    0.0000000000,   -0.1724135348,    0.0000000000,    0.0948856896,    0.0000000000,   -0.0165260216,    0.0000000000,    0.0240628237,    0.0000000000,   -0.0074364577,    0.0000000000,   -0.1661818109,    0.0000000000,   -0.0594553366,    0.0000000000,    0.0076780426,    0.0000000000,    0.0765750338,    0.0000000000,    0.0688086647,    0.0000000000 ]