calculator: qe
length_unit: au
nqpoint: 2      
npath: 1      
segment_nqpoint:
- 2
reciprocal_lattice:
- [   0.07414989,   0.00000000,   0.00000000 ] # a*
- [   0.00000000,   0.07414989,   0.00000000 ] # b*
- [   0.00000000,   0.00000000,   0.07414989 ] # c*
natom: 63     
lattice:
- [    13.486197055502720,     0.000000000000000,     0.000000000000000 ] # a
- [     0.000000000000000,    13.486197055502720,     0.000000000000000 ] # b
- [     0.000000000000000,     0.000000000000000,    13.486197055502720 ] # c
points:
- symbol: C  # 1
  coordinates: [  0.000136051200000,  0.999863948800000,  0.999863948800000 ]
  mass: 12.010700
- symbol: C  # 2
  coordinates: [  0.750043883400000,  0.249956149600000,  0.998712640600000 ]
  mass: 12.010700
- symbol: C  # 3
  coordinates: [  0.499857147500000,  0.500142852500000,  0.000141753300000 ]
  mass: 12.010700
- symbol: C  # 4
  coordinates: [  0.250096619100000,  0.749903347900000,  0.000274250000000 ]
  mass: 12.010700
- symbol: C  # 5
  coordinates: [  0.001287359400000,  0.249956149600000,  0.249956182600000 ]
  mass: 12.010700
- symbol: C  # 6
  coordinates: [  0.749688747700000,  0.494292930500000,  0.250311318300000 ]
  mass: 12.010700
- symbol: C  # 7
  coordinates: [  0.498521666500000,  0.748057589200000,  0.252780073500000 ]
  mass: 12.010700
- symbol: C  # 8
  coordinates: [  0.251056413000000,  0.000895707100000,  0.250399338000000 ]
  mass: 12.010700
- symbol: C  # 9
  coordinates: [  0.999858246700000,  0.500142852500000,  0.500142919500000 ]
  mass: 12.010700
- symbol: C  # 10
  coordinates: [  0.747219959500000,  0.748057589200000,  0.501478400500000 ]
  mass: 12.010700
- symbol: C  # 11
  coordinates: [  0.499857147500000,  0.000141753300000,  0.500142852500000 ]
  mass: 12.010700
- symbol: C  # 12
  coordinates: [  0.251942410800000,  0.252780056500000,  0.501478400500000 ]
  mass: 12.010700
- symbol: C  # 13
  coordinates: [  0.999725750000000,  0.749903347900000,  0.749903347900000 ]
  mass: 12.010700
- symbol: C  # 14
  coordinates: [  0.749600695000000,  0.000895707100000,  0.748943554000000 ]
  mass: 12.010700
- symbol: C  # 15
  coordinates: [  0.498521666500000,  0.252780040500000,  0.748057655200000 ]
  mass: 12.010700
- symbol: C  # 16
  coordinates: [  0.250348325300000,  0.499408270800000,  0.749651707700000 ]
  mass: 12.010700
- symbol: C  # 17
  coordinates: [  0.750043883400000,  0.998712640600000,  0.249956182600000 ]
  mass: 12.010700
- symbol: C  # 18
  coordinates: [  0.505707069500000,  0.250311318300000,  0.250311285300000 ]
  mass: 12.010700
- symbol: C  # 19
  coordinates: [  0.251942377800000,  0.501478333500000,  0.252780106500000 ]
  mass: 12.010700
- symbol: C  # 20
  coordinates: [  0.999104292900000,  0.748943554000000,  0.250399371000000 ]
  mass: 12.010700
- symbol: C  # 21
  coordinates: [  0.749688747700000,  0.250311268300000,  0.494292997500000 ]
  mass: 12.010700
- symbol: C  # 22
  coordinates: [  0.250348325300000,  0.749651641700000,  0.499408370800000 ]
  mass: 12.010700
- symbol: C  # 23
  coordinates: [  0.999981198300000,  0.000018801700000,  0.499957225200000 ]
  mass: 12.010700
- symbol: C  # 24
  coordinates: [  0.747219959500000,  0.501478333500000,  0.748057589200000 ]
  mass: 12.010700
- symbol: C  # 25
  coordinates: [  0.500591763200000,  0.749651641700000,  0.749651641700000 ]
  mass: 12.010700
- symbol: C  # 26
  coordinates: [  0.250096652100000,  0.000274250000000,  0.749903413900000 ]
  mass: 12.010700
- symbol: C  # 27
  coordinates: [  0.999104292900000,  0.250399338000000,  0.748943554000000 ]
  mass: 12.010700
- symbol: C  # 28
  coordinates: [  0.749600695000000,  0.748943554000000,  0.000895707100000 ]
  mass: 12.010700
- symbol: C  # 29
  coordinates: [  0.500042774800000,  0.000018801700000,  0.000018801700000 ]
  mass: 12.010700
- symbol: C  # 30
  coordinates: [  0.251056413000000,  0.250399338000000,  0.000895707100000 ]
  mass: 12.010700
- symbol: C  # 31
  coordinates: [  0.999981198300000,  0.499957225200000,  0.000018801700000 ]
  mass: 12.010700
- symbol: C  # 32
  coordinates: [  0.125893212900000,  0.125174497100000,  0.125174514100000 ]
  mass: 12.010700
- symbol: C  # 33
  coordinates: [  0.876488331800000,  0.374682528500000,  0.123511718200000 ]
  mass: 12.010700
- symbol: C  # 34
  coordinates: [  0.623746889400000,  0.622851223800000,  0.127221023200000 ]
  mass: 12.010700
- symbol: C  # 35
  coordinates: [  0.375659422900000,  0.875573133200000,  0.124826325300000 ]
  mass: 12.010700
- symbol: C  # 36
  coordinates: [  0.126070915000000,  0.375536584400000,  0.375536618400000 ]
  mass: 12.010700
- symbol: C  # 37
  coordinates: [  0.872778976800000,  0.622851223800000,  0.376253177600000 ]
  mass: 12.010700
- symbol: C  # 38
  coordinates: [  0.624463415600000,  0.873929068000000,  0.375536618400000 ]
  mass: 12.010700
- symbol: C  # 39
  coordinates: [  0.377148810200000,  0.127220998200000,  0.376253110600000 ]
  mass: 12.010700
- symbol: C  # 40
  coordinates: [  0.125091543900000,  0.625101516800000,  0.625101583800000 ]
  mass: 12.010700
- symbol: C  # 41
  coordinates: [  0.875173741700000,  0.875573133200000,  0.624340611100000 ]
  mass: 12.010700
- symbol: C  # 42
  coordinates: [  0.623746889400000,  0.127221023200000,  0.622851223800000 ]
  mass: 12.010700
- symbol: C  # 43
  coordinates: [  0.366219647300000,  0.369912430600000,  0.633780386700000 ]
  mass: 12.010700
- symbol: C  # 44
  coordinates: [  0.125067437700000,  0.874932595300000,  0.874932595300000 ]
  mass: 12.010700
- symbol: C  # 45
  coordinates: [  0.874825552900000,  0.125174464100000,  0.874106837100000 ]
  mass: 12.010700
- symbol: C  # 46
  coordinates: [  0.624463415600000,  0.375536584400000,  0.873929135000000 ]
  mass: 12.010700
- symbol: C  # 47
  coordinates: [  0.374898450200000,  0.625101583800000,  0.874908506100000 ]
  mass: 12.010700
- symbol: C  # 48
  coordinates: [  0.876488331800000,  0.123511676200000,  0.374682595500000 ]
  mass: 12.010700
- symbol: C  # 49
  coordinates: [  0.366219647300000,  0.633780386700000,  0.369912464600000 ]
  mass: 12.010700
- symbol: C  # 50
  coordinates: [  0.124049685500000,  0.875950297500000,  0.376011832100000 ]
  mass: 12.010700
- symbol: C  # 51
  coordinates: [  0.872779043800000,  0.376253110600000,  0.622851223800000 ]
  mass: 12.010700
- symbol: C  # 52
  coordinates: [  0.630087569400000,  0.633780319700000,  0.633780386700000 ]
  mass: 12.010700
- symbol: C  # 53
  coordinates: [  0.374898450200000,  0.874908372100000,  0.625101583800000 ]
  mass: 12.010700
- symbol: C  # 54
  coordinates: [  0.124426849800000,  0.124826308300000,  0.624340678100000 ]
  mass: 12.010700
- symbol: C  # 55
  coordinates: [  0.875173741700000,  0.624340544100000,  0.875573200200000 ]
  mass: 12.010700
- symbol: C  # 56
  coordinates: [  0.623988201900000,  0.875950364500000,  0.875950364500000 ]
  mass: 12.010700
- symbol: C  # 57
  coordinates: [  0.375659422900000,  0.124826308300000,  0.875573133200000 ]
  mass: 12.010700
- symbol: C  # 58
  coordinates: [  0.124049702500000,  0.376011798100000,  0.875950364500000 ]
  mass: 12.010700
- symbol: C  # 59
  coordinates: [  0.874825552900000,  0.874106770100000,  0.125174497100000 ]
  mass: 12.010700
- symbol: C  # 60
  coordinates: [  0.625317471500000,  0.123511718200000,  0.123511735200000 ]
  mass: 12.010700
- symbol: C  # 61
  coordinates: [  0.377148810200000,  0.376253110600000,  0.127221023200000 ]
  mass: 12.010700
- symbol: C  # 62
  coordinates: [  0.124426832800000,  0.624340611100000,  0.124826325300000 ]
  mass: 12.010700
- symbol: N  # 63
  coordinates: [  0.636453283200000,  0.363546716800000,  0.363546716800000 ]
  mass: 14.006700

phonon:
- q-position: [    0.0000000,    0.0000000,    0.0000000 ]
  distance:    0.0000000
  band:
  - # 1
    frequency:   -0.1284131504
    eigenvector:
    - # atom 1
      - [ -0.07359007264938,  0.00000000000000 ]
      - [  0.07359006517702,  0.00000000000000 ]
      - [  0.07359006542409,  0.00000000000000 ]
    - # atom 2
      - [ -0.07270127501064,  0.00000000000000 ]
      - [  0.07270126764627,  0.00000000000000 ]
      - [  0.07250745179127,  0.00000000000000 ]
    - # atom 3
      - [ -0.07355575877785,  0.00000000000000 ]
      - [  0.07355575130517,  0.00000000000000 ]
      - [  0.07339040174192,  0.00000000000000 ]
    - # atom 4
      - [ -0.07260178003501,  0.00000000000000 ]
      - [  0.07260177266559,  0.00000000000000 ]
      - [  0.07227313510359,  0.00000000000000 ]
    - # atom 5
      - [ -0.07250745889788,  0.00000000000000 ]
      - [  0.07270126764549,  0.00000000000000 ]
      - [  0.07270126788899,  0.00000000000000 ]
    - # atom 6
      - [ -0.07259149040794,  0.00000000000000 ]
      - [  0.07249240060660,  0.00000000000000 ]
      - [  0.07259148329007,  0.00000000000000 ]
    - # atom 7
      - [ -0.07236958643511,  0.00000000000000 ]
      - [  0.07268837707549,  0.00000000000000 ]
      - [  0.07240642982281,  0.00000000000000 ]
    - # atom 8
      - [ -0.07261010031691,  0.00000000000000 ]
      - [  0.07237333474171,  0.00000000000000 ]
      - [  0.07250737749262,  0.00000000000000 ]
    - # atom 9
      - [ -0.07339040894618,  0.00000000000000 ]
      - [  0.07355575130886,  0.00000000000000 ]
      - [  0.07355575155594,  0.00000000000000 ]
    - # atom 10
      - [ -0.07240643694861,  0.00000000000000 ]
      - [  0.07268837707534,  0.00000000000000 ]
      - [  0.07236957931073,  0.00000000000000 ]
    - # atom 11
      - [ -0.07355575877772,  0.00000000000000 ]
      - [  0.07339040149557,  0.00000000000000 ]
      - [  0.07355575155212,  0.00000000000000 ]
    - # atom 12
      - [ -0.07268838443145,  0.00000000000000 ]
      - [  0.07240642959642,  0.00000000000000 ]
      - [  0.07236957931506,  0.00000000000000 ]
    - # atom 13
      - [ -0.07227314221861,  0.00000000000000 ]
      - [  0.07260177266315,  0.00000000000000 ]
      - [  0.07260177290682,  0.00000000000000 ]
    - # atom 14
      - [ -0.07250738463005,  0.00000000000000 ]
      - [  0.07237333473396,  0.00000000000000 ]
      - [  0.07261009318220,  0.00000000000000 ]
    - # atom 15
      - [ -0.07236958643526,  0.00000000000000 ]
      - [  0.07240642957972,  0.00000000000000 ]
      - [  0.07268837731872,  0.00000000000000 ]
    - # atom 16
      - [ -0.07227303870125,  0.00000000000000 ]
      - [  0.07217471790977,  0.00000000000000 ]
      - [  0.07227303157240,  0.00000000000000 ]
    - # atom 17
      - [ -0.07270127501067,  0.00000000000000 ]
      - [  0.07250745154826,  0.00000000000000 ]
      - [  0.07270126788979,  0.00000000000000 ]
    - # atom 18
      - [ -0.07249240793311,  0.00000000000000 ]
      - [  0.07259148306084,  0.00000000000000 ]
      - [  0.07259148330424,  0.00000000000000 ]
    - # atom 19
      - [ -0.07268838443145,  0.00000000000000 ]
      - [  0.07236957907145,  0.00000000000000 ]
      - [  0.07240642984008,  0.00000000000000 ]
    - # atom 20
      - [ -0.07237334208395,  0.00000000000000 ]
      - [  0.07261009294348,  0.00000000000000 ]
      - [  0.07250737748968,  0.00000000000000 ]
    - # atom 21
      - [ -0.07259149040841,  0.00000000000000 ]
      - [  0.07259148304714,  0.00000000000000 ]
      - [  0.07249240084885,  0.00000000000000 ]
    - # atom 22
      - [ -0.07227303870048,  0.00000000000000 ]
      - [  0.07227303132786,  0.00000000000000 ]
      - [  0.07217471815302,  0.00000000000000 ]
    - # atom 23
      - [ -0.07347878695516,  0.00000000000000 ]
      - [  0.07347877949203,  0.00000000000000 ]
      - [  0.07341272193900,  0.00000000000000 ]
    - # atom 24
      - [ -0.07240643694918,  0.00000000000000 ]
      - [  0.07236957906725,  0.00000000000000 ]
      - [  0.07268837731855,  0.00000000000000 ]
    - # atom 25
      - [ -0.07217472526673,  0.00000000000000 ]
      - [  0.07227303130546,  0.00000000000000 ]
      - [  0.07227303154923,  0.00000000000000 ]
    - # atom 26
      - [ -0.07260178003510,  0.00000000000000 ]
      - [  0.07227313486030,  0.00000000000000 ]
      - [  0.07260177290934,  0.00000000000000 ]
    - # atom 27
      - [ -0.07237334208422,  0.00000000000000 ]
      - [  0.07250737724561,  0.00000000000000 ]
      - [  0.07261009318745,  0.00000000000000 ]
    - # atom 28
      - [ -0.07250738462995,  0.00000000000000 ]
      - [  0.07261009293840,  0.00000000000000 ]
      - [  0.07237333497672,  0.00000000000000 ]
    - # atom 29
      - [ -0.07341272915292,  0.00000000000000 ]
      - [  0.07347877949277,  0.00000000000000 ]
      - [  0.07347877973953,  0.00000000000000 ]
    - # atom 30
      - [ -0.07261010031709,  0.00000000000000 ]
      - [  0.07250737724846,  0.00000000000000 ]
      - [  0.07237333498474,  0.00000000000000 ]
    - # atom 31
      - [ -0.07347878695513,  0.00000000000000 ]
      - [  0.07341272169232,  0.00000000000000 ]
      - [  0.07347877973876,  0.00000000000000 ]
    - # atom 32
      - [ -0.07263869700735,  0.00000000000000 ]
      - [  0.07270971184194,  0.00000000000000 ]
      - [  0.07270971208588,  0.00000000000000 ]
    - # atom 33
      - [ -0.07284136648051,  0.00000000000000 ]
      - [  0.07258898481560,  0.00000000000000 ]
      - [  0.07284135935021,  0.00000000000000 ]
    - # atom 34
      - [ -0.07254627551507,  0.00000000000000 ]
      - [  0.07277429951431,  0.00000000000000 ]
      - [  0.07241992428130,  0.00000000000000 ]
    - # atom 35
      - [ -0.07260517954914,  0.00000000000000 ]
      - [  0.07272507027950,  0.00000000000000 ]
      - [  0.07247415784871,  0.00000000000000 ]
    - # atom 36
      - [ -0.07264611161334,  0.00000000000000 ]
      - [  0.07277247116668,  0.00000000000000 ]
      - [  0.07277247141068,  0.00000000000000 ]
    - # atom 37
      - [ -0.07241993139516,  0.00000000000000 ]
      - [  0.07277429953269,  0.00000000000000 ]
      - [  0.07254626836458,  0.00000000000000 ]
    - # atom 38
      - [ -0.07277247854166,  0.00000000000000 ]
      - [  0.07264610425570,  0.00000000000000 ]
      - [  0.07277247140617,  0.00000000000000 ]
    - # atom 39
      - [ -0.07277430689681,  0.00000000000000 ]
      - [  0.07241992405610,  0.00000000000000 ]
      - [  0.07254626836781,  0.00000000000000 ]
    - # atom 40
      - [ -0.07234532375962,  0.00000000000000 ]
      - [  0.07254661344105,  0.00000000000000 ]
      - [  0.07254661368509,  0.00000000000000 ]
    - # atom 41
      - [ -0.07247416498621,  0.00000000000000 ]
      - [  0.07272507027452,  0.00000000000000 ]
      - [  0.07260517241330,  0.00000000000000 ]
    - # atom 42
      - [ -0.07254627551517,  0.00000000000000 ]
      - [  0.07241992403864,  0.00000000000000 ]
      - [  0.07277429975780,  0.00000000000000 ]
    - # atom 43
      - [ -0.07241701193619,  0.00000000000000 ]
      - [  0.07166453372422,  0.00000000000000 ]
      - [  0.07241700481790,  0.00000000000000 ]
    - # atom 44
      - [ -0.07272315417379,  0.00000000000000 ]
      - [  0.07272314679609,  0.00000000000000 ]
      - [  0.07272314704003,  0.00000000000000 ]
    - # atom 45
      - [ -0.07270971922567,  0.00000000000000 ]
      - [  0.07270971184802,  0.00000000000000 ]
      - [  0.07263868986608,  0.00000000000000 ]
    - # atom 46
      - [ -0.07277247854181,  0.00000000000000 ]
      - [  0.07277247116232,  0.00000000000000 ]
      - [  0.07264610449898,  0.00000000000000 ]
    - # atom 47
      - [ -0.07254662082245,  0.00000000000000 ]
      - [  0.07254661344168,  0.00000000000000 ]
      - [  0.07234531662453,  0.00000000000000 ]
    - # atom 48
      - [ -0.07284136648066,  0.00000000000000 ]
      - [  0.07284135910654,  0.00000000000000 ]
      - [  0.07258898505850,  0.00000000000000 ]
    - # atom 49
      - [ -0.07241701193368,  0.00000000000000 ]
      - [  0.07241700457198,  0.00000000000000 ]
      - [  0.07166453396877,  0.00000000000000 ]
    - # atom 50
      - [ -0.07245571268390,  0.00000000000000 ]
      - [  0.07245570530037,  0.00000000000000 ]
      - [  0.07243444959653,  0.00000000000000 ]
    - # atom 51
      - [ -0.07241993139575,  0.00000000000000 ]
      - [  0.07254626812018,  0.00000000000000 ]
      - [  0.07277429977681,  0.00000000000000 ]
    - # atom 52
      - [ -0.07166454112058,  0.00000000000000 ]
      - [  0.07241700449845,  0.00000000000000 ]
      - [  0.07241700474186,  0.00000000000000 ]
    - # atom 53
      - [ -0.07254662082247,  0.00000000000000 ]
      - [  0.07234531638055,  0.00000000000000 ]
      - [  0.07254661368574,  0.00000000000000 ]
    - # atom 54
      - [ -0.07272507764435,  0.00000000000000 ]
      - [  0.07247415760858,  0.00000000000000 ]
      - [  0.07260517241350,  0.00000000000000 ]
    - # atom 55
      - [ -0.07247416498634,  0.00000000000000 ]
      - [  0.07260517216929,  0.00000000000000 ]
      - [  0.07272507051802,  0.00000000000000 ]
    - # atom 56
      - [ -0.07243445674668,  0.00000000000000 ]
      - [  0.07245570528475,  0.00000000000000 ]
      - [  0.07245570552888,  0.00000000000000 ]
    - # atom 57
      - [ -0.07260517954914,  0.00000000000000 ]
      - [  0.07247415760477,  0.00000000000000 ]
      - [  0.07272507052318,  0.00000000000000 ]
    - # atom 58
      - [ -0.07245571268443,  0.00000000000000 ]
      - [  0.07243444935203,  0.00000000000000 ]
      - [  0.07245570554504,  0.00000000000000 ]
    - # atom 59
      - [ -0.07270971922588,  0.00000000000000 ]
      - [  0.07263868962188,  0.00000000000000 ]
      - [  0.07270971209216,  0.00000000000000 ]
    - # atom 60
      - [ -0.07258899216197,  0.00000000000000 ]
      - [  0.07284135911109,  0.00000000000000 ]
      - [  0.07284135935491,  0.00000000000000 ]
    - # atom 61
      - [ -0.07277430689744,  0.00000000000000 ]
      - [  0.07254626812330,  0.00000000000000 ]
      - [  0.07241992429935,  0.00000000000000 ]
    - # atom 62
      - [ -0.07272507764418,  0.00000000000000 ]
      - [  0.07260517216949,  0.00000000000000 ]
      - [  0.07247415785264,  0.00000000000000 ]
    - # atom 63
      - [ -0.07851572359227,  0.00000000000000 ]
      - [  0.07851571568695,  0.00000000000000 ]
      - [  0.07851571594833,  0.00000000000000 ]
  - # 2
    frequency:   -0.1283761228
    eigenvector:
    - # atom 1
      - [  0.10399837812979,  0.00000000000000 ]
      - [  0.05104665903258,  0.00000000000000 ]
      - [  0.05295172949301,  0.00000000000000 ]
    - # atom 2
      - [  0.10250122781507,  0.00000000000000 ]
      - [  0.05030327217611,  0.00000000000000 ]
      - [  0.05208192967593,  0.00000000000000 ]
    - # atom 3
      - [  0.10397581619532,  0.00000000000000 ]
      - [  0.05107591417200,  0.00000000000000 ]
      - [  0.05279764806544,  0.00000000000000 ]
    - # atom 4
      - [  0.10258363293737,  0.00000000000000 ]
      - [  0.05032558496428,  0.00000000000000 ]
      - [  0.05214359512607,  0.00000000000000 ]
    - # atom 5
      - [  0.10229007186533,  0.00000000000000 ]
      - [  0.05032021968279,  0.00000000000000 ]
      - [  0.05219776019928,  0.00000000000000 ]
    - # atom 6
      - [  0.10235544172249,  0.00000000000000 ]
      - [  0.05005029534304,  0.00000000000000 ]
      - [  0.05226128289667,  0.00000000000000 ]
    - # atom 7
      - [  0.10251642815009,  0.00000000000000 ]
      - [  0.05025034933706,  0.00000000000000 ]
      - [  0.05234052038053,  0.00000000000000 ]
    - # atom 8
      - [  0.10265883679738,  0.00000000000000 ]
      - [  0.05010096380240,  0.00000000000000 ]
      - [  0.05228774499459,  0.00000000000000 ]
    - # atom 9
      - [  0.10369575876631,  0.00000000000000 ]
      - [  0.05099573295777,  0.00000000000000 ]
      - [  0.05290088565899,  0.00000000000000 ]
    - # atom 10
      - [  0.10244831651241,  0.00000000000000 ]
      - [  0.05025374776859,  0.00000000000000 ]
      - [  0.05224191062638,  0.00000000000000 ]
    - # atom 11
      - [  0.10397678944004,  0.00000000000000 ]
      - [  0.05089812106847,  0.00000000000000 ]
      - [  0.05298009362851,  0.00000000000000 ]
    - # atom 12
      - [  0.10237948166657,  0.00000000000000 ]
      - [  0.05010340410664,  0.00000000000000 ]
      - [  0.05215188825333,  0.00000000000000 ]
    - # atom 13
      - [  0.10241118422989,  0.00000000000000 ]
      - [  0.05037858767189,  0.00000000000000 ]
      - [  0.05225741487902,  0.00000000000000 ]
    - # atom 14
      - [  0.10275391998804,  0.00000000000000 ]
      - [  0.05026938829313,  0.00000000000000 ]
      - [  0.05232388290414,  0.00000000000000 ]
    - # atom 15
      - [  0.10251532202656,  0.00000000000000 ]
      - [  0.05046608581650,  0.00000000000000 ]
      - [  0.05212578541678,  0.00000000000000 ]
    - # atom 16
      - [  0.10276863517709,  0.00000000000000 ]
      - [  0.05025836851850,  0.00000000000000 ]
      - [  0.05208674675173,  0.00000000000000 ]
    - # atom 17
      - [  0.10250102210515,  0.00000000000000 ]
      - [  0.05020815243227,  0.00000000000000 ]
      - [  0.05218101840253,  0.00000000000000 ]
    - # atom 18
      - [  0.10196846643377,  0.00000000000000 ]
      - [  0.05009055690859,  0.00000000000000 ]
      - [  0.05196730461665,  0.00000000000000 ]
    - # atom 19
      - [  0.10237952291695,  0.00000000000000 ]
      - [  0.05027342162356,  0.00000000000000 ]
      - [  0.05198224092450,  0.00000000000000 ]
    - # atom 20
      - [  0.10224428380628,  0.00000000000000 ]
      - [  0.05033362400063,  0.00000000000000 ]
      - [  0.05234884160440,  0.00000000000000 ]
    - # atom 21
      - [  0.10235182955052,  0.00000000000000 ]
      - [  0.05038814736058,  0.00000000000000 ]
      - [  0.05191818133147,  0.00000000000000 ]
    - # atom 22
      - [  0.10277454167342,  0.00000000000000 ]
      - [  0.05020119570962,  0.00000000000000 ]
      - [  0.05213401983620,  0.00000000000000 ]
    - # atom 23
      - [  0.10386455590394,  0.00000000000000 ]
      - [  0.05098910788261,  0.00000000000000 ]
      - [  0.05286847724072,  0.00000000000000 ]
    - # atom 24
      - [  0.10244391425858,  0.00000000000000 ]
      - [  0.05036455012014,  0.00000000000000 ]
      - [  0.05212914259794,  0.00000000000000 ]
    - # atom 25
      - [  0.10239237815883,  0.00000000000000 ]
      - [  0.05068780513145,  0.00000000000000 ]
      - [  0.05256744967721,  0.00000000000000 ]
    - # atom 26
      - [  0.10258298958711,  0.00000000000000 ]
      - [  0.05026759931359,  0.00000000000000 ]
      - [  0.05220505552167,  0.00000000000000 ]
    - # atom 27
      - [  0.10224223945902,  0.00000000000000 ]
      - [  0.05046693594299,  0.00000000000000 ]
      - [  0.05221481418044,  0.00000000000000 ]
    - # atom 28
      - [  0.10275467069473,  0.00000000000000 ]
      - [  0.05044403287431,  0.00000000000000 ]
      - [  0.05214128588055,  0.00000000000000 ]
    - # atom 29
      - [  0.10383486885745,  0.00000000000000 ]
      - [  0.05097293568443,  0.00000000000000 ]
      - [  0.05287565470058,  0.00000000000000 ]
    - # atom 30
      - [  0.10265749664740,  0.00000000000000 ]
      - [  0.05040508862650,  0.00000000000000 ]
      - [  0.05197490573707,  0.00000000000000 ]
    - # atom 31
      - [  0.10386475220311,  0.00000000000000 ]
      - [  0.05096640198748,  0.00000000000000 ]
      - [  0.05289163059959,  0.00000000000000 ]
    - # atom 32
      - [  0.10278910861218,  0.00000000000000 ]
      - [  0.05048712449951,  0.00000000000000 ]
      - [  0.05236805064015,  0.00000000000000 ]
    - # atom 33
      - [  0.10259904413010,  0.00000000000000 ]
      - [  0.05018602571489,  0.00000000000000 ]
      - [  0.05228769113311,  0.00000000000000 ]
    - # atom 34
      - [  0.10289958026442,  0.00000000000000 ]
      - [  0.05057188478361,  0.00000000000000 ]
      - [  0.05225847156590,  0.00000000000000 ]
    - # atom 35
      - [  0.10270955444409,  0.00000000000000 ]
      - [  0.05027455127038,  0.00000000000000 ]
      - [  0.05233523655141,  0.00000000000000 ]
    - # atom 36
      - [  0.10240167897778,  0.00000000000000 ]
      - [  0.05034951034970,  0.00000000000000 ]
      - [  0.05223090258591,  0.00000000000000 ]
    - # atom 37
      - [  0.10227114893404,  0.00000000000000 ]
      - [  0.05017258683605,  0.00000000000000 ]
      - [  0.05242557311796,  0.00000000000000 ]
    - # atom 38
      - [  0.10267500729902,  0.00000000000000 ]
      - [  0.05026293377360,  0.00000000000000 ]
      - [  0.05232435891240,  0.00000000000000 ]
    - # atom 39
      - [  0.10262678555578,  0.00000000000000 ]
      - [  0.05000808361266,  0.00000000000000 ]
      - [  0.05235854041184,  0.00000000000000 ]
    - # atom 40
      - [  0.10270005977588,  0.00000000000000 ]
      - [  0.05042996477816,  0.00000000000000 ]
      - [  0.05231168504714,  0.00000000000000 ]
    - # atom 41
      - [  0.10270790421906,  0.00000000000000 ]
      - [  0.05038281332246,  0.00000000000000 ]
      - [  0.05229758965226,  0.00000000000000 ]
    - # atom 42
      - [  0.10289875661969,  0.00000000000000 ]
      - [  0.05038738511921,  0.00000000000000 ]
      - [  0.05244936229623,  0.00000000000000 ]
    - # atom 43
      - [  0.10297778439974,  0.00000000000000 ]
      - [  0.05052753299443,  0.00000000000000 ]
      - [  0.05164815712391,  0.00000000000000 ]
    - # atom 44
      - [  0.10268096186385,  0.00000000000000 ]
      - [  0.05040001723236,  0.00000000000000 ]
      - [  0.05228095490483,  0.00000000000000 ]
    - # atom 45
      - [  0.10272484112771,  0.00000000000000 ]
      - [  0.05035519944422,  0.00000000000000 ]
      - [  0.05233601880368,  0.00000000000000 ]
    - # atom 46
      - [  0.10267385898180,  0.00000000000000 ]
      - [  0.05044411499342,  0.00000000000000 ]
      - [  0.05213875546663,  0.00000000000000 ]
    - # atom 47
      - [  0.10272825516457,  0.00000000000000 ]
      - [  0.05041641590878,  0.00000000000000 ]
      - [  0.05229067875435,  0.00000000000000 ]
    - # atom 48
      - [  0.10259784611829,  0.00000000000000 ]
      - [  0.05040886403037,  0.00000000000000 ]
      - [  0.05205897718529,  0.00000000000000 ]
    - # atom 49
      - [  0.10299717024329,  0.00000000000000 ]
      - [  0.04975191169694,  0.00000000000000 ]
      - [  0.05241322958017,  0.00000000000000 ]
    - # atom 50
      - [  0.10287653017935,  0.00000000000000 ]
      - [  0.05032531762074,  0.00000000000000 ]
      - [  0.05240112102679,  0.00000000000000 ]
    - # atom 51
      - [  0.10226654494806,  0.00000000000000 ]
      - [  0.05054105010093,  0.00000000000000 ]
      - [  0.05205491105273,  0.00000000000000 ]
    - # atom 52
      - [  0.10294075245081,  0.00000000000000 ]
      - [  0.05134902334946,  0.00000000000000 ]
      - [  0.05322588293289,  0.00000000000000 ]
    - # atom 53
      - [  0.10272809070752,  0.00000000000000 ]
      - [  0.05040939124149,  0.00000000000000 ]
      - [  0.05229830063480,  0.00000000000000 ]
    - # atom 54
      - [  0.10253497271308,  0.00000000000000 ]
      - [  0.05037167480064,  0.00000000000000 ]
      - [  0.05229341034111,  0.00000000000000 ]
    - # atom 55
      - [  0.10270690111389,  0.00000000000000 ]
      - [  0.05041615435965,  0.00000000000000 ]
      - [  0.05226043171631,  0.00000000000000 ]
    - # atom 56
      - [  0.10291697087200,  0.00000000000000 ]
      - [  0.05066468077125,  0.00000000000000 ]
      - [  0.05254710358251,  0.00000000000000 ]
    - # atom 57
      - [  0.10270950309203,  0.00000000000000 ]
      - [  0.05045431608196,  0.00000000000000 ]
      - [  0.05215348375594,  0.00000000000000 ]
    - # atom 58
      - [  0.10287241096769,  0.00000000000000 ]
      - [  0.05051586007776,  0.00000000000000 ]
      - [  0.05221185964366,  0.00000000000000 ]
    - # atom 59
      - [  0.10272323981293,  0.00000000000000 ]
      - [  0.05045310006991,  0.00000000000000 ]
      - [  0.05223772689963,  0.00000000000000 ]
    - # atom 60
      - [  0.10224499264580,  0.00000000000000 ]
      - [  0.05031016527522,  0.00000000000000 ]
      - [  0.05219019038977,  0.00000000000000 ]
    - # atom 61
      - [  0.10262193885172,  0.00000000000000 ]
      - [  0.05047319375008,  0.00000000000000 ]
      - [  0.05188377404533,  0.00000000000000 ]
    - # atom 62
      - [  0.10253628680480,  0.00000000000000 ]
      - [  0.05041192369643,  0.00000000000000 ]
      - [  0.05225359837526,  0.00000000000000 ]
    - # atom 63
      - [  0.11002426135290,  0.00000000000000 ]
      - [  0.05400440911121,  0.00000000000000 ]
      - [  0.05601986333331,  0.00000000000000 ]
  - # 3
    frequency:   -0.1283761228
    eigenvector:
    - # atom 1
      - [  0.00109989280557,  0.00000000000000 ]
      - [  0.09061518702295,  0.00000000000000 ]
      - [ -0.08951529380463,  0.00000000000000 ]
    - # atom 2
      - [  0.00107433250583,  0.00000000000000 ]
      - [  0.08931538374269,  0.00000000000000 ]
      - [ -0.08804489071360,  0.00000000000000 ]
    - # atom 3
      - [  0.00114567102990,  0.00000000000000 ]
      - [  0.09057336808579,  0.00000000000000 ]
      - [ -0.08925481800046,  0.00000000000000 ]
    - # atom 4
      - [  0.00105451156900,  0.00000000000000 ]
      - [  0.08939714933569,  0.00000000000000 ]
      - [ -0.08814913664325,  0.00000000000000 ]
    - # atom 5
      - [  0.00108182566047,  0.00000000000000 ]
      - [  0.08930583662851,  0.00000000000000 ]
      - [ -0.08822160030069,  0.00000000000000 ]
    - # atom 6
      - [  0.00091172673117,  0.00000000000000 ]
      - [  0.08884649764749,  0.00000000000000 ]
      - [ -0.08801265272236,  0.00000000000000 ]
    - # atom 7
      - [  0.00103192001703,  0.00000000000000 ]
      - [  0.08920559594713,  0.00000000000000 ]
      - [ -0.08807323518695,  0.00000000000000 ]
    - # atom 8
      - [  0.00102236092802,  0.00000000000000 ]
      - [  0.08913337004855,  0.00000000000000 ]
      - [ -0.08846253570239,  0.00000000000000 ]
    - # atom 9
      - [  0.00109669228582,  0.00000000000000 ]
      - [  0.09061853692521,  0.00000000000000 ]
      - [ -0.08951972003147,  0.00000000000000 ]
    - # atom 10