63   
78   

1    
  0.0200000000000000   0.0000000000000000   0.0000000000000000
  -0.0174161000    0.0000930605    0.0000930605
   0.0006034600   -0.0006348195    0.0002112805
   0.0000275800    0.0000164005    0.0000199505
   0.0006361000   -0.0006690795   -0.0002888395
  -0.0004879900   -0.0002819995   -0.0002819995
   0.0000336700   -0.0000395995    0.0000333505
  -0.0000657900   -0.0000438395    0.0000551305
   0.0006558500    0.0003503005    0.0006960605
  -0.0002572200    0.0000136205    0.0000136205
  -0.0000053900   -0.0000499395    0.0000111005
   0.0000275800    0.0000199505    0.0000164005
   0.0000520600    0.0000069905    0.0000519305
  -0.0005820900    0.0003000505    0.0003000505
   0.0005677500   -0.0002440995    0.0006093505
  -0.0000657900    0.0000551305   -0.0000438395
   0.0000372700   -0.0000593795    0.0000177005
   0.0006034600    0.0002112805   -0.0006348195
   0.0000260800   -0.0000232395   -0.0000232395
   0.0000520600    0.0000519305    0.0000069905
  -0.0006170300   -0.0003148895    0.0003291405
   0.0000336700    0.0000333505   -0.0000395995
   0.0000372700    0.0000177005   -0.0000593795
   0.0000333400   -0.0000004495   -0.0000024595
  -0.0000053900    0.0000111005   -0.0000499395
   0.0000018900    0.0000119805    0.0000119805
   0.0006361000   -0.0002888395   -0.0006690795
  -0.0006170300    0.0003291405   -0.0003148895
   0.0005677500    0.0006093505   -0.0002440995
   0.0000570200    0.0000001605    0.0000001605
   0.0006558500    0.0006960605    0.0003503005
   0.0000333400   -0.0000024595   -0.0000004495
   0.0037934700    0.0008352405    0.0008352405
  -0.0000431100    0.0000090505   -0.0000167295
  -0.0000309900   -0.0000135295    0.0001231305
  -0.0000377800    0.0000511305   -0.0000078495
   0.0001940600   -0.0000138995   -0.0000138995
   0.0000899900   -0.0001506395    0.0001422105
  -0.0000472000   -0.0001503695    0.0000296905
   0.0000857600   -0.0000491795    0.0000975905
   0.0001493100    0.0000446905    0.0000446905
  -0.0001051200   -0.0000036995   -0.0000405595
  -0.0000309900    0.0001231305   -0.0000135295
  -0.0000057400   -0.0000107995   -0.0000255895
   0.0038205200   -0.0009146995   -0.0009146995
   0.0035623900   -0.0006440595    0.0006064905
  -0.0000472000    0.0000296905   -0.0001503695
   0.0000772800   -0.0000938295    0.0000773205
  -0.0000431100   -0.0000167295    0.0000090505
  -0.0000057400   -0.0000255895   -0.0000107995
  -0.0000653500    0.0000029205   -0.0000536795
   0.0000899900    0.0001422105   -0.0001506395
   0.0000087500    0.0000008505    0.0000008505
   0.0000772800    0.0000773205   -0.0000938295
  -0.0000825600    0.0000215105    0.0000426305
  -0.0001051200   -0.0000405595   -0.0000036995
  -0.0000211900   -0.0000483395   -0.0000483395
  -0.0000377800   -0.0000078495    0.0000511305
  -0.0000653500   -0.0000536795    0.0000029205
   0.0035623900    0.0006064905   -0.0006440595
  -0.0000072700    0.0000133105    0.0000133105
   0.0000857600    0.0000975905   -0.0000491795
  -0.0000825600    0.0000426305    0.0000215105
   0.0000078800   -0.0000352395   -0.0000352395

1    
 -0.0200000000000000   0.0000000000000000   0.0000000000000000
   0.0173850305   -0.0001431803   -0.0001431803
  -0.0006507895    0.0006857397   -0.0003927803
  -0.0000563195    0.0000145697    0.0000190197
  -0.0006209095    0.0006530497    0.0003052197
   0.0006646005    0.0003146297    0.0003146297
  -0.0000265195   -0.0000791903   -0.0000401203
   0.0000037905   -0.0000018803    0.0000131797
  -0.0005776295   -0.0002426503   -0.0005966903
   0.0002190905    0.0000165997    0.0000165997
  -0.0000621395    0.0000047197    0.0000528197
  -0.0000563195    0.0000190197    0.0000145697
  -0.0000042995    0.0000605197    0.0000121997
   0.0005615505   -0.0002975703   -0.0002975703
  -0.0006634995    0.0003522797   -0.0006872103
   0.0000037905    0.0000131797   -0.0000018803
  -0.0000167595   -0.0000203003   -0.0000358903
  -0.0006507895   -0.0003927803    0.0006857397
   0.0000937505    0.0000161297    0.0000161297
  -0.0000042995    0.0000121997    0.0000605197
   0.0005169905    0.0002548097   -0.0002477403
  -0.0000265195   -0.0000401203   -0.0000791903
  -0.0000167595   -0.0000358903   -0.0000203003
  -0.0000316195    0.0000005397    0.0000013197
  -0.0000621395    0.0000528197    0.0000047197
   0.0000777705   -0.0000294503   -0.0000294503
  -0.0006209095    0.0003052197    0.0006530497
   0.0005169905   -0.0002477403    0.0002548097
  -0.0006634995   -0.0006872103    0.0003522797
  -0.0000535895    0.0000001197    0.0000001197
  -0.0005776295   -0.0005966903   -0.0002426503
  -0.0000316195    0.0000013197    0.0000005397
  -0.0035183795   -0.0006486103   -0.0006486103
   0.0001001805   -0.0000701703   -0.0000382903
  -0.0000780095   -0.0001032503   -0.0000491303
   0.0000402805   -0.0000335603    0.0000774397
  -0.0000740795    0.0001625397    0.0001625397
  -0.0001653095    0.0000361197   -0.0000332703
  -0.0001005795    0.0000331297    0.0001208097
   0.0000315505    0.0001236197    0.0000138697
  -0.0001197895   -0.0001343303   -0.0001343303
   0.0000372405    0.0000206497    0.0000419297
  -0.0000780095   -0.0000491303   -0.0001032503
   0.0000328905   -0.0000354103   -0.0000001703
  -0.0036658395    0.0007630197    0.0007630197
  -0.0037541895    0.0008311897   -0.0008753203
  -0.0001005795    0.0001208097    0.0000331297
   0.0000163405    0.0000016697   -0.0001038203
   0.0001001805   -0.0000382903   -0.0000701703
   0.0000328905   -0.0000001703   -0.0000354103
   0.0000786805   -0.0000166903    0.0000263197
  -0.0001653095   -0.0000332703    0.0000361197
   0.0000392705   -0.0000268503   -0.0000268503
   0.0000163405   -0.0001038203    0.0000016697
   0.0000652305    0.0000473597   -0.0000424903
   0.0000372405    0.0000419297    0.0000206497
   0.0000483205    0.0000327697    0.0000327697
   0.0000402805    0.0000774397   -0.0000335603
   0.0000786805    0.0000263197   -0.0000166903
  -0.0037541895   -0.0008753203    0.0008311897
   0.0000676605   -0.0000682603   -0.0000682603
   0.0000315505    0.0000138697    0.0001236197
   0.0000652305   -0.0000424903    0.0000473597
   0.0000454305   -0.0000156203   -0.0000156203

2    
  0.0200000000000000   0.0000000000000000   0.0000000000000000
   0.0006277703   -0.0006546694   -0.0002879400
  -0.0180065497    0.0001678706    0.0000762100
   0.0006236203   -0.0006369094    0.0003161600
   0.0000536203   -0.0000037194    0.0000093100
   0.0007152003    0.0003148006    0.0006688600
  -0.0006157597   -0.0004100094   -0.0002704900
   0.0000016303   -0.0000073694    0.0000605400
   0.0000104803    0.0000380006    0.0000594200
   0.0000163703   -0.0000153194    0.0000288600
  -0.0002514297   -0.0000051094    0.0000337800
   0.0000198803   -0.0000092994   -0.0000009900
   0.0000759303    0.0000393806    0.0000364600
   0.0000261303   -0.0000184694    0.0000270600
  -0.0006167297    0.0003580406    0.0002665400
   0.0005901803   -0.0002820594    0.0005985500
  -0.0000138397   -0.0000374694   -0.0000244900
  -0.0005814597   -0.0003848994    0.0003104900
   0.0006914003    0.0002415606   -0.0007380600
   0.0000002503    0.0000170906    0.0000177400
  -0.0000181597   -0.0000170394    0.0000140600
   0.0000438703   -0.0000016094   -0.0000606800
   0.0000286003   -0.0000092494   -0.0000456000
   0.0000344903    0.0000289906   -0.0000190900
  -0.0005987397    0.0003067706   -0.0002945900
   0.0000591803   -0.0000207494   -0.0000407100
  -0.0000221497    0.0000243506    0.0000127700
   0.0005947103   -0.0002501494   -0.0007113700
  -0.0000048297   -0.0000340094    0.0000529800
   0.0006299403    0.0006503606   -0.0002962000
   0.0000995203    0.0000426206    0.0000522100
   0.0006336103    0.0006611306    0.0003015700
   0.0000634203    0.0000965806    0.0000152000
   0.0037696703    0.0007612906    0.0007294100
  -0.0001194597   -0.0000159294    0.0000452600
   0.0000348103    0.0000514606    0.0001253500
   0.0000915103   -0.0000199194    0.0001178700
   0.0001087103   -0.0001484194   -0.0000425800
   0.0000659203   -0.0001437194    0.0001606800
   0.0000827303   -0.0000466594    0.0000075400
   0.0000016303   -0.0000328294   -0.0000582700
   0.0001075203    0.0000961706    0.0000880100
  -0.0001134497    0.0000231706   -0.0000911700
   0.0000340203    0.0000904106    0.0000227600
   0.0000717803   -0.0000812894    0.0000548800
   0.0037606003   -0.0008789794   -0.0010100300
   0.0036111503   -0.0006394594    0.0006646000
   0.0000752103   -0.0000924094   -0.0001064100
  -0.0000352697   -0.0000161294   -0.0000645600
  -0.0000011497   -0.0000296594   -0.0000265000
  -0.0000057897   -0.0000198594    0.0000024700
  -0.0001015397    0.0000407506   -0.0000148200
   0.0001743103    0.0000590906   -0.0001025300
   0.0000323203   -0.0000004594   -0.0000360000
   0.0000253203    0.0001225306   -0.0000487300
  -0.0000955297   -0.0000371594    0.0000179200
  -0.0000425897   -0.0000502394   -0.0000252600
  -0.0000279597   -0.0000019794   -0.0000302200
  -0.0000263197   -0.0000475394    0.0000368700
  -0.0001197397   -0.0000539194    0.0000409400
   0.0036337303    0.0007146706   -0.0007183000
   0.0000248203    0.0000950506    0.0000827100
   0.0000310203    0.0000444306   -0.0000535300
   0.0000418503    0.0000680906    0.0000630800

2    
 -0.0200000000000000   0.0000000000000000   0.0000000000000000
  -0.0006411903    0.0006655300    0.0003090702
   0.0179628097   -0.0001266400   -0.0002561598
  -0.0006612503    0.0006780300   -0.0002793898
  -0.0000471103   -0.0000016400    0.0000074902
  -0.0005250703   -0.0002743600   -0.0006189698
   0.0006177797    0.0002824700    0.0002548202
  -0.0000639803   -0.0000392200    0.0000062902
   0.0000593097    0.0000669400    0.0000273602
  -0.0000546203    0.0000441600   -0.0000001898
   0.0001838297   -0.0000423700    0.0000290802
  -0.0000489103    0.0000471900    0.0000311002
  -0.0000286003    0.0000273300    0.0000260102
  -0.0000426203    0.0000126200   -0.0000314198
   0.0005253597   -0.0002461500   -0.0003271098
  -0.0006621603    0.0003512200   -0.0006576598
   0.0000345697   -0.0000428600    0.0000052002
   0.0005468797    0.0002100400   -0.0002786798
  -0.0005797803   -0.0002518600    0.0007425502
   0.0000470097    0.0000456400    0.0000483802
  -0.0000869103   -0.0000515200    0.0000724802
  -0.0000364803   -0.0000061100   -0.0000594998
  -0.0000086603   -0.0000104300   -0.0000355598
  -0.0000326803   -0.0000304800    0.0000177502
   0.0005365097   -0.0002499100    0.0002542802
   0.0000208197    0.0000009700    0.0000227602
   0.0000277197   -0.0000078100   -0.0000188498
  -0.0006906903    0.0003349200    0.0006326702
  -0.0000823103   -0.0000344300    0.0000519902
  -0.0006350603   -0.0006621200    0.0002972602
  -0.0000300203    0.0000439300    0.0000526902
  -0.0006235403   -0.0006530000   -0.0003002898
   0.0001283997    0.0000100300    0.0000923902
  -0.0036253003   -0.0007422700   -0.0007060798
   0.0000136897   -0.0001013800    0.0000276502
  -0.0000353903   -0.0000362500   -0.0000581698
   0.0000277397    0.0001668200    0.0000317002
  -0.0001802803    0.0000313800    0.0001501802
  -0.0002139803    0.0000259500   -0.0000134798
   0.0000317297    0.0001205700    0.0001028902
   0.0000262397   -0.0000585200   -0.0000325198
  -0.0001752303   -0.0000793400   -0.0000884598
   0.0000072697    0.0000499600   -0.0000239198
  -0.0000078003   -0.0001383300   -0.0000499598
  -0.0000000303    0.0000081100   -0.0001255798
  -0.0037820403    0.0009033300    0.0007352802
  -0.0038436203    0.0008670200   -0.0008639798
   0.0000157297    0.0000014900    0.0000768802
   0.0000898597   -0.0000397400    0.0000020002
   0.0000273997    0.0000023900   -0.0000212398
   0.0000203597    0.0000054300   -0.0000303698
   0.0000254397    0.0000669300   -0.0001000298
  -0.0001277303   -0.0000863800    0.0000763402
   0.0000598697   -0.0000257500   -0.0000552098
  -0.0000403603   -0.0000546500    0.0000450802
   0.0000248997    0.0000363600   -0.0000028398
   0.0000726197    0.0000349400    0.0000091902
   0.0000272397    0.0000689100    0.0000466502
   0.0000420197    0.0000203700   -0.0000531798
   0.0000102497   -0.0001357900    0.0000662502
  -0.0036556203   -0.0008512600    0.0007400602
   0.0000895097    0.0000139000   -0.0000088898
  -0.0000461103   -0.0000441600    0.0001211402
   0.0000122797   -0.0001201500   -0.0001152298

2    
  0.0000000000000000   0.0000000000000000   0.0200000000000000
   0.0002869497   -0.0002869497   -0.0005556798
   0.0001440397   -0.0001440397   -0.0181134498
  -0.0003161603    0.0003161603   -0.0005475098
   0.0000027897   -0.0000027897   -0.0002196598
   0.0007382197    0.0003178903    0.0006433902
   0.0002567597    0.0006425703    0.0006991402
  -0.0000044403   -0.0000402197    0.0000670202
   0.0000204097    0.0000822903    0.0000759602
  -0.0000338803    0.0000002403   -0.0000108798
  -0.0000387303   -0.0000315897    0.0000651902
  -0.0000002403    0.0000338803   -0.0000108798
   0.0000315897    0.0000387303    0.0000651902
   0.0000203897    0.0000115303    0.0000299402
  -0.0003387203    0.0007166803    0.0006053302
   0.0005756597   -0.0002892597    0.0005742102
   0.0000189397   -0.0000098697    0.0000297402
  -0.0003178903   -0.0007382197    0.0006433902
  -0.0006425703   -0.0002567597    0.0006991402
   0.0000402197    0.0000044403    0.0000670202
  -0.0000822903   -0.0000204097    0.0000759602
   0.0000200597   -0.0000200597    0.0000350202
   0.0000113997   -0.0000113997   -0.0000202398
   0.0000166197   -0.0000166197   -0.0000243398
   0.0002892597   -0.0005756597    0.0005742102
   0.0000098697   -0.0000189397    0.0000297402
  -0.0000115303   -0.0000203897    0.0000299402
  -0.0007166803    0.0003387203    0.0006053302
  -0.0000427003   -0.0000352097    0.0000887302
   0.0002951997    0.0002994303   -0.0005649398
   0.0000352097    0.0000427003    0.0000887302
  -0.0002994303   -0.0002951997   -0.0005649398
   0.0000528197    0.0000669603   -0.0000097298
   0.0008527197    0.0007373903    0.0036917502
  -0.0000390303   -0.0001020297   -0.0000277498
   0.0000917997    0.0000897003    0.0001769402
   0.0001015497   -0.0000200697    0.0001067202
  -0.0001212703   -0.0000109297    0.0000923502
   0.0000200697   -0.0001015497    0.0001067202
   0.0000109297    0.0001212703    0.0000923502
   0.0000008897   -0.0000581397   -0.0000587098
   0.0000562497    0.0000501003    0.0000338202
  -0.0000906803   -0.0000031297   -0.0000861298
   0.0000543997    0.0000579703    0.0000439702
   0.0001247897   -0.0001247897    0.0001068002
  -0.0008950703    0.0008950703    0.0036408702
   0.0006296597   -0.0006296597    0.0035698402
  -0.0000398603    0.0000398603    0.0001239002
  -0.0000170703    0.0000170703   -0.0000646698
   0.0000046597   -0.0000046597   -0.0000344198
   0.0000194897   -0.0000194897   -0.0000282698
   0.0000031297    0.0000906803   -0.0000861298
  -0.0000579703   -0.0000543997    0.0000439702
   0.0000581397   -0.0000008897   -0.0000587098
  -0.0000501003   -0.0000562497    0.0000338202
  -0.0000222503    0.0000366403   -0.0000556498
   0.0000017897   -0.0000501197   -0.0000724698
  -0.0000366403    0.0000222503   -0.0000556498
   0.0000501197   -0.0000017897   -0.0000724698
  -0.0000669603   -0.0000528197   -0.0000097298
  -0.0007373903   -0.0008527197    0.0036917502
   0.0001020297    0.0000390303   -0.0000277498
  -0.0000897003   -0.0000917997    0.0001769402
   0.0000604397   -0.0000604397   -0.0001440798

2    
  0.0000000000000000   0.0000000000000000  -0.0200000000000000
  -0.0003163197    0.0003163197    0.0005833000
  -0.0001888897    0.0001888897    0.0179383200
   0.0002935003   -0.0002935003    0.0005900700
   0.0000032103   -0.0000032103    0.0002366600
  -0.0005454997   -0.0002768103   -0.0005959600
  -0.0002473697   -0.0007508703   -0.0006978000
  -0.0000582397   -0.0000068303   -0.0000001400
   0.0000486103    0.0000225097    0.0000111600
  -0.0000041497    0.0000286197    0.0000395100
  -0.0000284197   -0.0000157103   -0.0000027700
  -0.0000286197    0.0000041497    0.0000395100
   0.0000157103    0.0000284197   -0.0000027700
  -0.0000370097   -0.0000174803   -0.0000359600
   0.0002536603   -0.0006234903   -0.0006818500
  -0.0006503797    0.0003582997   -0.0006303500
   0.0000012903   -0.0000704003   -0.0000492400
   0.0002768103    0.0005454997   -0.0005959600
   0.0007508703    0.0002473697   -0.0006978000
   0.0000068303    0.0000582397   -0.0000001400
  -0.0000225097   -0.0000486103    0.0000111600
  -0.0000124997    0.0000124997   -0.0001555000
   0.0000083903   -0.0000083903   -0.0000613200
  -0.0000150297    0.0000150297    0.0000231000
  -0.0003582997    0.0006503797   -0.0006303500
   0.0000704003   -0.0000012903   -0.0000492400
   0.0000174803    0.0000370097   -0.0000359600
   0.0006234903   -0.0002536603   -0.0006818500
  -0.0000441697   -0.0000338103    0.0000163000
  -0.0002852197   -0.0002941303    0.0005597600
   0.0000338103    0.0000441697    0.0000163000
   0.0002941303    0.0002852197    0.0005597600
   0.0001369703    0.0000408997    0.0001157400
  -0.0007147397   -0.0007207803   -0.0036643900
  -0.0000688597   -0.0000147003    0.0000994000
  -0.0000904197   -0.0000729103   -0.0001075900
   0.0000182103    0.0001666197    0.0000422800
   0.0000477003   -0.0001034503    0.0000173000
  -0.0001666197   -0.0000182103    0.0000422800
   0.0001034503   -0.0000477003    0.0000173000
   0.0000263203   -0.0000336503   -0.0000325600
  -0.0001248097   -0.0000354703   -0.0000369800
  -0.0000179497    0.0000763197   -0.0000313000
  -0.0000288797   -0.0001061703   -0.0000715200
  -0.0000543197    0.0000543197   -0.0001795800
   0.0008705703   -0.0008705703   -0.0039188800
  -0.0008555797    0.0008555797   -0.0037728300
   0.0001323403   -0.0001323403   -0.0001553300
   0.0000735203   -0.0000735203    0.0000037200
   0.0000222703   -0.0000222703   -0.0000132800
  -0.0000048497    0.0000048497    0.0000002900
  -0.0000763197    0.0000179497   -0.0000313000
   0.0001061703    0.0000288797   -0.0000715200
   0.0000336503   -0.0000263203   -0.0000325600
   0.0000354703    0.0001248097   -0.0000369800
  -0.0000465197   -0.0000377703    0.0000725100
   0.0000266003    0.0000354597    0.0000576600
   0.0000377703    0.0000465197    0.0000725100
  -0.0000354597   -0.0000266003    0.0000576600
  -0.0000408997   -0.0001369703    0.0001157400
   0.0007207803    0.0007147397   -0.0036643900
   0.0000147003    0.0000688597    0.0000994000
   0.0000729103    0.0000904197   -0.0001075900
  -0.0000087497    0.0000087497    0.0000948400

3    
  0.0200000000000000   0.0000000000000000   0.0000000000000000
   0.0000307494    0.0000116900    0.0000095198
   0.0006198194   -0.0006447300   -0.0003971702
  -0.0177743306   -0.0001162800    0.0000243098
   0.0006370894   -0.0006590600    0.0003015398
   0.0000582994    0.0000025900    0.0000326498
   0.0006522394    0.0002180500    0.0006997398
  -0.0006301106   -0.0003193100   -0.0002618902
   0.0000597694    0.0000669500    0.0000713698
   0.0000225794    0.0000151600    0.0000130398
  -0.0000111106   -0.0000623100    0.0000422398
  -0.0002445206    0.0000190800    0.0000151798
   0.0000462794   -0.0000042000    0.0000176598
  -0.0000395606    0.0000109700   -0.0000175402
  -0.0000169506    0.0000366100   -0.0000080002
  -0.0006271806    0.0003316700    0.0002668398
   0.0006373894   -0.0003198500    0.0006530898
   0.0000070894   -0.0000772000   -0.0000113802
  -0.0005646406   -0.0003199700    0.0002800998
   0.0006372894    0.0003062400   -0.0006295202
  -0.0000849006   -0.0000489300    0.0000288198
   0.0000268194    0.0000355700   -0.0000812602
   0.0000310594    0.0000269600   -0.0000333702
   0.0000110394   -0.0000017200   -0.0000027802
   0.0005969594   -0.0002423800   -0.0007072002
  -0.0005485806    0.0002843700   -0.0002941802
   0.0000278094   -0.0000072500   -0.0000308202
  -0.0000840606    0.0000571000   -0.0000196002
   0.0006077794    0.0006459300    0.0003506698
   0.0000248594   -0.0000006300    0.0000006198
   0.0006702694    0.0007153400   -0.0002481902
   0.0000643394   -0.0000004500    0.0000002298
   0.0001238394    0.0000965900    0.0001439198
  -0.0000113206    0.0000077600   -0.0000744702
   0.0037933094    0.0008311300    0.0010065198
  -0.0000650206    0.0000468100    0.0000422698
   0.0000914394   -0.0000177400    0.0000255598
  -0.0000006506   -0.0001469400    0.0000981898
   0.0000604194   -0.0001392300   -0.0000093002
   0.0001880394   -0.0000427600    0.0001332298
   0.0000472494    0.0000418700    0.0000004298
  -0.0000553206    0.0000186600   -0.0000119302
   0.0000749994    0.0001187900    0.0000259098
  -0.0000389306   -0.0000469100   -0.0000600002
   0.0000596494   -0.0000785500   -0.0001258802
  -0.0000270106    0.0000100000   -0.0000056702
   0.0036516294   -0.0007508400   -0.0008686302
   0.0037098094   -0.0007979200    0.0007304098
   0.0000070794   -0.0000400300   -0.0000204302
  -0.0000367806    0.0000154200    0.0000321698
  -0.0000132306   -0.0000182900   -0.0000247302
  -0.0000043206    0.0001412100   -0.0001082002
  -0.0000281706   -0.0000365300    0.0000359798
   0.0001762594    0.0000650300   -0.0001259202
  -0.0000290506    0.0000449000    0.0000088398
  -0.0000636706   -0.0000421600    0.0000541798
  -0.0000530806   -0.0000503400   -0.0000000602
  -0.0000655206   -0.0000079900   -0.0000011402
  -0.0000235206   -0.0000584800   -0.0000554502
  -0.0000253106   -0.0000524000   -0.0000347802
  -0.0000313906    0.0000126200   -0.0000339202
   0.0037831194    0.0008593100   -0.0008268202
  -0.0000396206    0.0000370500    0.0000800998
   0.0000014994    0.0000199500   -0.0000950902

3    
 -0.0200000000000000   0.0000000000000000   0.0000000000000000
  -0.0000532403    0.0000097305    0.0000125097
  -0.0006498203    0.0006703805    0.0002134197
   0.0177579097    0.0002194605    0.0001008997
  -0.0006400503    0.0006639405   -0.0002874103
   0.0001231497    0.0000347805    0.0000039297
  -0.0006356903   -0.0003369995   -0.0006971803
   0.0005624197    0.0002650205    0.0003213797
   0.0000091797    0.0000363405    0.0000140397
  -0.0000605603    0.0000129305    0.0000137497
  -0.0000562703    0.0000137205    0.0000181297
   0.0002147397    0.0000172305    0.0000130497
   0.0000002697    0.0000700705    0.0000426797
   0.0000236597   -0.0000183995    0.0000114897
  -0.0000701903    0.0000670205   -0.0000611003
   0.0005590797   -0.0002584695   -0.0003093703
  -0.0006261003    0.0002395205   -0.0006856603
  -0.0000459203   -0.0001053695    0.0000479397
   0.0006879997    0.0003169705   -0.0002959603
  -0.0005985503   -0.0002457595    0.0007059897
  -0.0000203003   -0.0000211795    0.0000562297
  -0.0000197903   -0.0000438995   -0.0000410703
  -0.0000114403   -0.0000484395   -0.0000498003
  -0.0000092603   -0.0000011495   -0.0000008303
  -0.0006557903    0.0003022205    0.0006485197
   0.0006328097   -0.0003117895    0.0002805197
  -0.0000222503    0.0000222205    0.0000229697
  -0.0000208803    0.0000286305   -0.0000489703
  -0.0006859603   -0.0007037895   -0.0002445703
  -0.0000219903   -0.0000016795   -0.0000027303
  -0.0006096303   -0.0006412695    0.0003538297
  -0.0000629103   -0.0000038695   -0.0000020903
   0.0000652097    0.0000076605   -0.0000386903
   0.0000686297   -0.0000709595    0.0000171797
  -0.0038173203   -0.0008678895   -0.0008496103
   0.0000663797   -0.0000320995    0.0000239097
   0.0000251397    0.0001641805    0.0001221097
  -0.0000709803    0.0000285305    0.0000092697
  -0.0002060103    0.0000195905    0.0001546797
  -0.0000739903    0.0001156205   -0.0000262003
  -0.0000205203   -0.0001343895   -0.0000950003
  -0.0000138603   -0.0000036395    0.0000093097
  -0.0001813503   -0.0000470995   -0.0001433103
   0.0000666797   -0.0000018495    0.0000326597
   0.0000092997    0.0000075405    0.0000536897
  -0.0000799703    0.0000951005   -0.0001876303
  -0.0037152403    0.0008181205    0.0006679397
  -0.0037022303    0.0007850405   -0.0008415803
   0.0000487897   -0.0000172795   -0.0000436503
   0.0000638897   -0.0000442095   -0.0000821803
   0.0000276097    0.0000023905   -0.0000048503
  -0.0000687203   -0.0000343095   -0.0000109003
   0.0000750097    0.0000088805   -0.0000640603
  -0.0000864203   -0.0000929595    0.0000329597
   0.0000126597    0.0000214505   -0.0000127503
  -0.0000039003    0.0000416805   -0.0000412303
   0.0000804897    0.0000322805   -0.0000174403
   0.0000669297    0.0000751505    0.0000169897
   0.0000358597    0.0000284605    0.0000377797
  -0.0000815703   -0.0001374895    0.0001404697
   0.0000916997   -0.0000701895   -0.0000248103
  -0.0037491803   -0.0008322595    0.0009823997
   0.0000214997   -0.0000392395   -0.0000128203
   0.0000508697   -0.0000739395    0.0000408397

3    
  0.0000000000000000   0.0000000000000000   0.0200000000000000
  -0.0000101405    0.0000101405   -0.0002264010
   0.0002755995   -0.0002755995   -0.0006635510
  -0.0000927105    0.0000927105   -0.0176505510
  -0.0002962805    0.0002962805   -0.0005633710
   0.0000759495    0.0000470705    0.0000473790
   0.0006993195    0.0002210205    0.0006408290
   0.0002524495    0.0006346105    0.0006647890
   0.0000661295    0.0000371405    0.0000707790
  -0.0000179905    0.0000131405    0.0000561590
  -0.0000384805   -0.0000263695    0.0000036790
  -0.0000131405    0.0000179905    0.0000561590
   0.0000263695    0.0000384805    0.0000036790
   0.0000080895    0.0000257605    0.0000247590
  -0.0000115105    0.0000674405   -0.0000081910
  -0.0003112005    0.0006855405    0.0006088590
   0.0006646795   -0.0003241995    0.0006131290
  -0.0000470705   -0.0000759495    0.0000473790
  -0.0002210205   -0.0006993195    0.0006408290
  -0.0006346105   -0.0002524495    0.0006647890
  -0.0000371405   -0.0000661295    0.0000707790
   0.0000228795   -0.0000228795   -0.0000723610
   0.0000018795   -0.0000018795   -0.0000786810
  -0.0000004405    0.0000004405    0.0000116490
  -0.0006855405    0.0003112005    0.0006088590
   0.0003241995   -0.0006646795    0.0006131290
  -0.0000257605   -0.0000080895    0.0000247590
  -0.0000674405    0.0000115105   -0.0000081910
  -0.0003483005   -0.0003252795   -0.0005190310
  -0.0000019105    0.0000021205    0.0000257190
   0.0003252795    0.0003483005   -0.0005190310
  -0.0000021205    0.0000019105    0.0000257190
   0.0001870695    0.0001447805    0.0001874790
  -0.0000240205   -0.0000117195   -0.0000962410
   0.0009250395    0.0008987705    0.0038802290
   0.0000266795   -0.0000353295   -0.0000432710
   0.0000130195    0.0001634405    0.0001064890
   0.0000128595   -0.0001444995    0.0000873990
  -0.0001634405   -0.0000130195    0.0001064890
   0.0001444995   -0.0000128595    0.0000873990
   0.0000588195    0.0000468905   -0.0000150110
  -0.0000455105   -0.0000042795   -0.0000219210
   0.0000343595    0.0000823305   -0.0000269810
  -0.0000377305   -0.0000768995   -0.0000723110
  -0.0000546405    0.0000546405    0.0000963490
   0.0000358395   -0.0000358395    0.0000378290
  -0.0008337405    0.0008337405    0.0035891090
   0.0008165495   -0.0008165495    0.0036477090
   0.0000376495   -0.0000376495   -0.0000546010
   0.0000737195   -0.0000737195   -0.0000618610
  -0.0000058705    0.0000058705   -0.0000279410
  -0.0000823305   -0.0000343595   -0.0000269810
   0.0000768995    0.0000377305   -0.0000723110
  -0.0000468905   -0.0000588195   -0.0000150110
   0.0000042795    0.0000455105   -0.0000219210
   0.0000052995    0.0000191105   -0.0000661710
   0.0000369495    0.0000314705   -0.0000808910
  -0.0000191105   -0.0000052995   -0.0000661710
  -0.0000314705   -0.0000369495   -0.0000808910
  -0.0001447805   -0.0001870695    0.0001874790
   0.0000117195    0.0000240205   -0.0000962410
  -0.0008987705   -0.0009250395    0.0038802290
   0.0000353295   -0.0000266795   -0.0000432710
  -0.0000282905    0.0000282905   -0.0001186410

3    
  0.0000000000000000   0.0000000000000000  -0.0200000000000000
  -0.0000110200    0.0000110200    0.0002499805
  -0.0003200600    0.0003200600    0.0004883205
  -0.0000159100    0.0000159100    0.0176645305
   0.0003102600   -0.0003102600    0.0005847805
   0.0001059700   -0.0000095800   -0.0000085195
  -0.0006779900   -0.0003404100   -0.0006393095
  -0.0003124500   -0.0006716000   -0.0005887295
   0.0000045600    0.0000666100    0.0000168505
  -0.0000187800    0.0000149300   -0.0000268695
  -0.0000273100   -0.0000222600    0.0000580005
  -0.0000149300    0.0000187800   -0.0000268695
   0.0000222600    0.0000273100    0.0000580005
  -0.0000228000   -0.0000331100   -0.0000302995
  -0.0000743600    0.0000362700   -0.0000596195
   0.0002514400   -0.0006310200   -0.0006646295
  -0.0006549800    0.0002447100   -0.0006408095
   0.0000095800   -0.0001059700   -0.0000085195
   0.0003404100    0.0006779900   -0.0006393095
   0.0006716000    0.0003124500   -0.0005887295
  -0.0000666100   -0.0000045600    0.0000168505
  -0.0000148100    0.0000148100   -0.0000479395
   0.0000196300   -0.0000196300   -0.0000022395
   0.0000029000   -0.0000029000   -0.0000136595
   0.0006310200   -0.0002514400   -0.0006646295
  -0.0002447100    0.0006549800   -0.0006408095
   0.0000331100    0.0000228000   -0.0000302995
  -0.0000362700    0.0000743600   -0.0000596195
   0.0002550400    0.0002475800    0.0006205005
   0.0000067900   -0.0000041700   -0.0000251695
  -0.0002475800   -0.0002550400    0.0006205005
   0.0000041700   -0.0000067900   -0.0000251695
   0.0000058000   -0.0000379500   -0.0000777995
   0.0000818800   -0.0000507600    0.0000380005
  -0.0009464200   -0.0009309000   -0.0037161995
  -0.0000237100    0.0000498900    0.0001102405
   0.0001053100   -0.0000170400    0.0000429005
  -0.0000831000    0.0000271800    0.0000233605
   0.0000170400   -0.0001053100    0.0000429005
  -0.0000271800    0.0000831000    0.0000233605
  -0.0000319900   -0.0001400200   -0.0000776995
  -0.0000215900    0.0000193800    0.0000201205
  -0.0001421300   -0.0000121800   -0.0000895295
   0.0000661100    0.0000278000    0.0000438805