phonopy:
  version: "2.21.0"
  calculator: qe
  frequency_unit_conversion_factor: 108.970772
  symmetry_tolerance: 1.00000e-05
  configuration:
    dim: "1 1 1"
    atom_name: "C     N"
    band_points: "1"
    band: "0.0 0.0 0.0 0 0 0"
    eigenvectors: ".TRUE."
    dos: ".TRUE."
    dos_range: "0 40 0.1"
    writedm: ".true."
    mp: "1 1 1"
    gamma_center: ".TRUE."
    cell_filename: "scf.in"
    qpoints: "0 0 0"
    calculator: "qe"

physical_unit:
  atomic_mass: "AMU"
  length: "au"
  force_constants: "Ry/au^2"

space_group:
  type: "R3m"
  number: 160
  Hall_symbol: "R 3 -2\""

supercell_matrix:
- [   1,   0,   0 ]
- [   0,   1,   0 ]
- [   0,   0,   1 ]

primitive_cell:
  lattice:
  - [    13.486197055502720,     0.000000000000000,     0.000000000000000 ] # a
  - [     0.000000000000000,    13.486197055502720,     0.000000000000000 ] # b
  - [     0.000000000000000,     0.000000000000000,    13.486197055502720 ] # c
  points:
  - symbol: C  # 1
    coordinates: [  0.000136051200000,  0.999863948800000,  0.999863948800000 ]
    mass: 12.010700
  - symbol: C  # 2
    coordinates: [  0.750043883400000,  0.249956149600000,  0.998712640600000 ]
    mass: 12.010700
  - symbol: C  # 3
    coordinates: [  0.499857147500000,  0.500142852500000,  0.000141753300000 ]
    mass: 12.010700
  - symbol: C  # 4
    coordinates: [  0.250096619100000,  0.749903347900000,  0.000274250000000 ]
    mass: 12.010700
  - symbol: C  # 5
    coordinates: [  0.001287359400000,  0.249956149600000,  0.249956182600000 ]
    mass: 12.010700
  - symbol: C  # 6
    coordinates: [  0.749688747700000,  0.494292930500000,  0.250311318300000 ]
    mass: 12.010700
  - symbol: C  # 7
    coordinates: [  0.498521666500000,  0.748057589200000,  0.252780073500000 ]
    mass: 12.010700
  - symbol: C  # 8
    coordinates: [  0.251056413000000,  0.000895707100000,  0.250399338000000 ]
    mass: 12.010700
  - symbol: C  # 9
    coordinates: [  0.999858246700000,  0.500142852500000,  0.500142919500000 ]
    mass: 12.010700
  - symbol: C  # 10
    coordinates: [  0.747219959500000,  0.748057589200000,  0.501478400500000 ]
    mass: 12.010700
  - symbol: C  # 11
    coordinates: [  0.499857147500000,  0.000141753300000,  0.500142852500000 ]
    mass: 12.010700
  - symbol: C  # 12
    coordinates: [  0.251942410800000,  0.252780056500000,  0.501478400500000 ]
    mass: 12.010700
  - symbol: C  # 13
    coordinates: [  0.999725750000000,  0.749903347900000,  0.749903347900000 ]
    mass: 12.010700
  - symbol: C  # 14
    coordinates: [  0.749600695000000,  0.000895707100000,  0.748943554000000 ]
    mass: 12.010700
  - symbol: C  # 15
    coordinates: [  0.498521666500000,  0.252780040500000,  0.748057655200000 ]
    mass: 12.010700
  - symbol: C  # 16
    coordinates: [  0.250348325300000,  0.499408270800000,  0.749651707700000 ]
    mass: 12.010700
  - symbol: C  # 17
    coordinates: [  0.750043883400000,  0.998712640600000,  0.249956182600000 ]
    mass: 12.010700
  - symbol: C  # 18
    coordinates: [  0.505707069500000,  0.250311318300000,  0.250311285300000 ]
    mass: 12.010700
  - symbol: C  # 19
    coordinates: [  0.251942377800000,  0.501478333500000,  0.252780106500000 ]
    mass: 12.010700
  - symbol: C  # 20
    coordinates: [  0.999104292900000,  0.748943554000000,  0.250399371000000 ]
    mass: 12.010700
  - symbol: C  # 21
    coordinates: [  0.749688747700000,  0.250311268300000,  0.494292997500000 ]
    mass: 12.010700
  - symbol: C  # 22
    coordinates: [  0.250348325300000,  0.749651641700000,  0.499408370800000 ]
    mass: 12.010700
  - symbol: C  # 23
    coordinates: [  0.999981198300000,  0.000018801700000,  0.499957225200000 ]
    mass: 12.010700
  - symbol: C  # 24
    coordinates: [  0.747219959500000,  0.501478333500000,  0.748057589200000 ]
    mass: 12.010700
  - symbol: C  # 25
    coordinates: [  0.500591763200000,  0.749651641700000,  0.749651641700000 ]
    mass: 12.010700
  - symbol: C  # 26
    coordinates: [  0.250096652100000,  0.000274250000000,  0.749903413900000 ]
    mass: 12.010700
  - symbol: C  # 27
    coordinates: [  0.999104292900000,  0.250399338000000,  0.748943554000000 ]
    mass: 12.010700
  - symbol: C  # 28
    coordinates: [  0.749600695000000,  0.748943554000000,  0.000895707100000 ]
    mass: 12.010700
  - symbol: C  # 29
    coordinates: [  0.500042774800000,  0.000018801700000,  0.000018801700000 ]
    mass: 12.010700
  - symbol: C  # 30
    coordinates: [  0.251056413000000,  0.250399338000000,  0.000895707100000 ]
    mass: 12.010700
  - symbol: C  # 31
    coordinates: [  0.999981198300000,  0.499957225200000,  0.000018801700000 ]
    mass: 12.010700
  - symbol: C  # 32
    coordinates: [  0.125893212900000,  0.125174497100000,  0.125174514100000 ]
    mass: 12.010700
  - symbol: C  # 33
    coordinates: [  0.876488331800000,  0.374682528500000,  0.123511718200000 ]
    mass: 12.010700
  - symbol: C  # 34
    coordinates: [  0.623746889400000,  0.622851223800000,  0.127221023200000 ]
    mass: 12.010700
  - symbol: C  # 35
    coordinates: [  0.375659422900000,  0.875573133200000,  0.124826325300000 ]
    mass: 12.010700
  - symbol: C  # 36
    coordinates: [  0.126070915000000,  0.375536584400000,  0.375536618400000 ]
    mass: 12.010700
  - symbol: C  # 37
    coordinates: [  0.872778976800000,  0.622851223800000,  0.376253177600000 ]
    mass: 12.010700
  - symbol: C  # 38
    coordinates: [  0.624463415600000,  0.873929068000000,  0.375536618400000 ]
    mass: 12.010700
  - symbol: C  # 39
    coordinates: [  0.377148810200000,  0.127220998200000,  0.376253110600000 ]
    mass: 12.010700
  - symbol: C  # 40
    coordinates: [  0.125091543900000,  0.625101516800000,  0.625101583800000 ]
    mass: 12.010700
  - symbol: C  # 41
    coordinates: [  0.875173741700000,  0.875573133200000,  0.624340611100000 ]
    mass: 12.010700
  - symbol: C  # 42
    coordinates: [  0.623746889400000,  0.127221023200000,  0.622851223800000 ]
    mass: 12.010700
  - symbol: C  # 43
    coordinates: [  0.366219647300000,  0.369912430600000,  0.633780386700000 ]
    mass: 12.010700
  - symbol: C  # 44
    coordinates: [  0.125067437700000,  0.874932595300000,  0.874932595300000 ]
    mass: 12.010700
  - symbol: C  # 45
    coordinates: [  0.874825552900000,  0.125174464100000,  0.874106837100000 ]
    mass: 12.010700
  - symbol: C  # 46
    coordinates: [  0.624463415600000,  0.375536584400000,  0.873929135000000 ]
    mass: 12.010700
  - symbol: C  # 47
    coordinates: [  0.374898450200000,  0.625101583800000,  0.874908506100000 ]
    mass: 12.010700
  - symbol: C  # 48
    coordinates: [  0.876488331800000,  0.123511676200000,  0.374682595500000 ]
    mass: 12.010700
  - symbol: C  # 49
    coordinates: [  0.366219647300000,  0.633780386700000,  0.369912464600000 ]
    mass: 12.010700
  - symbol: C  # 50
    coordinates: [  0.124049685500000,  0.875950297500000,  0.376011832100000 ]
    mass: 12.010700
  - symbol: C  # 51
    coordinates: [  0.872779043800000,  0.376253110600000,  0.622851223800000 ]
    mass: 12.010700
  - symbol: C  # 52
    coordinates: [  0.630087569400000,  0.633780319700000,  0.633780386700000 ]
    mass: 12.010700
  - symbol: C  # 53
    coordinates: [  0.374898450200000,  0.874908372100000,  0.625101583800000 ]
    mass: 12.010700
  - symbol: C  # 54
    coordinates: [  0.124426849800000,  0.124826308300000,  0.624340678100000 ]
    mass: 12.010700
  - symbol: C  # 55
    coordinates: [  0.875173741700000,  0.624340544100000,  0.875573200200000 ]
    mass: 12.010700
  - symbol: C  # 56
    coordinates: [  0.623988201900000,  0.875950364500000,  0.875950364500000 ]
    mass: 12.010700
  - symbol: C  # 57
    coordinates: [  0.375659422900000,  0.124826308300000,  0.875573133200000 ]
    mass: 12.010700
  - symbol: C  # 58
    coordinates: [  0.124049702500000,  0.376011798100000,  0.875950364500000 ]
    mass: 12.010700
  - symbol: C  # 59
    coordinates: [  0.874825552900000,  0.874106770100000,  0.125174497100000 ]
    mass: 12.010700
  - symbol: C  # 60
    coordinates: [  0.625317471500000,  0.123511718200000,  0.123511735200000 ]
    mass: 12.010700
  - symbol: C  # 61
    coordinates: [  0.377148810200000,  0.376253110600000,  0.127221023200000 ]
    mass: 12.010700
  - symbol: C  # 62
    coordinates: [  0.124426832800000,  0.624340611100000,  0.124826325300000 ]
    mass: 12.010700
  - symbol: N  # 63
    coordinates: [  0.636453283200000,  0.363546716800000,  0.363546716800000 ]
    mass: 14.006700
  reciprocal_lattice: # without 2pi
  - [     0.074149887910171,     0.000000000000000,     0.000000000000000 ] # a*
  - [     0.000000000000000,     0.074149887910171,     0.000000000000000 ] # b*
  - [     0.000000000000000,     0.000000000000000,     0.074149887910171 ] # c*

unit_cell:
  lattice:
  - [    13.486197055502720,     0.000000000000000,     0.000000000000000 ] # a
  - [     0.000000000000000,    13.486197055502720,     0.000000000000000 ] # b
  - [     0.000000000000000,     0.000000000000000,    13.486197055502720 ] # c
  points:
  - symbol: C  # 1
    coordinates: [  0.000136051200000, -0.000136051200000, -0.000136051200000 ]
    mass: 12.010700
    reduced_to: 1
  - symbol: C  # 2
    coordinates: [  0.750043883400000,  0.249956149600000, -0.001287359400000 ]
    mass: 12.010700
    reduced_to: 2
  - symbol: C  # 3
    coordinates: [  0.499857147500000,  0.500142852500000,  0.000141753300000 ]
    mass: 12.010700
    reduced_to: 3
  - symbol: C  # 4
    coordinates: [  0.250096619100000,  0.749903347900000,  0.000274250000000 ]
    mass: 12.010700
    reduced_to: 4
  - symbol: C  # 5
    coordinates: [  0.001287359400000,  0.249956149600000,  0.249956182600000 ]
    mass: 12.010700
    reduced_to: 5
  - symbol: C  # 6
    coordinates: [  0.749688747700000,  0.494292930500000,  0.250311318300000 ]
    mass: 12.010700
    reduced_to: 6
  - symbol: C  # 7
    coordinates: [  0.498521666500000,  0.748057589200000,  0.252780073500000 ]
    mass: 12.010700
    reduced_to: 7
  - symbol: C  # 8
    coordinates: [  0.251056413000000,  0.000895707100000,  0.250399338000000 ]
    mass: 12.010700
    reduced_to: 8
  - symbol: C  # 9
    coordinates: [ -0.000141753300000,  0.500142852500000,  0.500142919500000 ]
    mass: 12.010700
    reduced_to: 9
  - symbol: C  # 10
    coordinates: [  0.747219959500000,  0.748057589200000,  0.501478400500000 ]
    mass: 12.010700
    reduced_to: 10
  - symbol: C  # 11
    coordinates: [  0.499857147500000,  0.000141753300000,  0.500142852500000 ]
    mass: 12.010700
    reduced_to: 11
  - symbol: C  # 12
    coordinates: [  0.251942410800000,  0.252780056500000,  0.501478400500000 ]
    mass: 12.010700
    reduced_to: 12
  - symbol: C  # 13
    coordinates: [ -0.000274250000000,  0.749903347900000,  0.749903347900000 ]
    mass: 12.010700
    reduced_to: 13
  - symbol: C  # 14
    coordinates: [  0.749600695000000,  0.000895707100000,  0.748943554000000 ]
    mass: 12.010700
    reduced_to: 14
  - symbol: C  # 15
    coordinates: [  0.498521666500000,  0.252780040500000,  0.748057655200000 ]
    mass: 12.010700
    reduced_to: 15
  - symbol: C  # 16
    coordinates: [  0.250348325300000,  0.499408270800000,  0.749651707700000 ]
    mass: 12.010700
    reduced_to: 16
  - symbol: C  # 17
    coordinates: [  0.750043883400000, -0.001287359400000,  0.249956182600000 ]
    mass: 12.010700
    reduced_to: 17
  - symbol: C  # 18
    coordinates: [  0.505707069500000,  0.250311318300000,  0.250311285300000 ]
    mass: 12.010700
    reduced_to: 18
  - symbol: C  # 19
    coordinates: [  0.251942377800000,  0.501478333500000,  0.252780106500000 ]
    mass: 12.010700
    reduced_to: 19
  - symbol: C  # 20
    coordinates: [ -0.000895707100000,  0.748943554000000,  0.250399371000000 ]
    mass: 12.010700
    reduced_to: 20
  - symbol: C  # 21
    coordinates: [  0.749688747700000,  0.250311268300000,  0.494292997500000 ]
    mass: 12.010700
    reduced_to: 21
  - symbol: C  # 22
    coordinates: [  0.250348325300000,  0.749651641700000,  0.499408370800000 ]
    mass: 12.010700
    reduced_to: 22
  - symbol: C  # 23
    coordinates: [ -0.000018801700000,  0.000018801700000,  0.499957225200000 ]
    mass: 12.010700
    reduced_to: 23
  - symbol: C  # 24
    coordinates: [  0.747219959500000,  0.501478333500000,  0.748057589200000 ]
    mass: 12.010700
    reduced_to: 24
  - symbol: C  # 25
    coordinates: [  0.500591763200000,  0.749651641700000,  0.749651641700000 ]
    mass: 12.010700
    reduced_to: 25
  - symbol: C  # 26
    coordinates: [  0.250096652100000,  0.000274250000000,  0.749903413900000 ]
    mass: 12.010700
    reduced_to: 26
  - symbol: C  # 27
    coordinates: [ -0.000895707100000,  0.250399338000000,  0.748943554000000 ]
    mass: 12.010700
    reduced_to: 27
  - symbol: C  # 28
    coordinates: [  0.749600695000000,  0.748943554000000,  0.000895707100000 ]
    mass: 12.010700
    reduced_to: 28
  - symbol: C  # 29
    coordinates: [  0.500042774800000,  0.000018801700000,  0.000018801700000 ]
    mass: 12.010700
    reduced_to: 29
  - symbol: C  # 30
    coordinates: [  0.251056413000000,  0.250399338000000,  0.000895707100000 ]
    mass: 12.010700
    reduced_to: 30
  - symbol: C  # 31
    coordinates: [ -0.000018801700000,  0.499957225200000,  0.000018801700000 ]
    mass: 12.010700
    reduced_to: 31
  - symbol: C  # 32
    coordinates: [  0.125893212900000,  0.125174497100000,  0.125174514100000 ]
    mass: 12.010700
    reduced_to: 32
  - symbol: C  # 33
    coordinates: [  0.876488331800000,  0.374682528500000,  0.123511718200000 ]
    mass: 12.010700
    reduced_to: 33
  - symbol: C  # 34
    coordinates: [  0.623746889400000,  0.622851223800000,  0.127221023200000 ]
    mass: 12.010700
    reduced_to: 34
  - symbol: C  # 35
    coordinates: [  0.375659422900000,  0.875573133200000,  0.124826325300000 ]
    mass: 12.010700
    reduced_to: 35
  - symbol: C  # 36
    coordinates: [  0.126070915000000,  0.375536584400000,  0.375536618400000 ]
    mass: 12.010700
    reduced_to: 36
  - symbol: C  # 37
    coordinates: [  0.872778976800000,  0.622851223800000,  0.376253177600000 ]
    mass: 12.010700
    reduced_to: 37
  - symbol: C  # 38
    coordinates: [  0.624463415600000,  0.873929068000000,  0.375536618400000 ]
    mass: 12.010700
    reduced_to: 38
  - symbol: C  # 39
    coordinates: [  0.377148810200000,  0.127220998200000,  0.376253110600000 ]
    mass: 12.010700
    reduced_to: 39
  - symbol: C  # 40
    coordinates: [  0.125091543900000,  0.625101516800000,  0.625101583800000 ]
    mass: 12.010700
    reduced_to: 40
  - symbol: C  # 41
    coordinates: [  0.875173741700000,  0.875573133200000,  0.624340611100000 ]
    mass: 12.010700
    reduced_to: 41
  - symbol: C  # 42
    coordinates: [  0.623746889400000,  0.127221023200000,  0.622851223800000 ]
    mass: 12.010700
    reduced_to: 42
  - symbol: C  # 43
    coordinates: [  0.366219647300000,  0.369912430600000,  0.633780386700000 ]
    mass: 12.010700
    reduced_to: 43
  - symbol: C  # 44
    coordinates: [  0.125067437700000,  0.874932595300000,  0.874932595300000 ]
    mass: 12.010700
    reduced_to: 44
  - symbol: C  # 45
    coordinates: [  0.874825552900000,  0.125174464100000,  0.874106837100000 ]
    mass: 12.010700
    reduced_to: 45
  - symbol: C  # 46
    coordinates: [  0.624463415600000,  0.375536584400000,  0.873929135000000 ]
    mass: 12.010700
    reduced_to: 46
  - symbol: C  # 47
    coordinates: [  0.374898450200000,  0.625101583800000,  0.874908506100000 ]
    mass: 12.010700
    reduced_to: 47
  - symbol: C  # 48
    coordinates: [  0.876488331800000,  0.123511676200000,  0.374682595500000 ]
    mass: 12.010700
    reduced_to: 48
  - symbol: C  # 49
    coordinates: [  0.366219647300000,  0.633780386700000,  0.369912464600000 ]
    mass: 12.010700
    reduced_to: 49
  - symbol: C  # 50
    coordinates: [  0.124049685500000,  0.875950297500000,  0.376011832100000 ]
    mass: 12.010700
    reduced_to: 50
  - symbol: C  # 51
    coordinates: [  0.872779043800000,  0.376253110600000,  0.622851223800000 ]
    mass: 12.010700
    reduced_to: 51
  - symbol: C  # 52
    coordinates: [  0.630087569400000,  0.633780319700000,  0.633780386700000 ]
    mass: 12.010700
    reduced_to: 52
  - symbol: C  # 53
    coordinates: [  0.374898450200000,  0.874908372100000,  0.625101583800000 ]
    mass: 12.010700
    reduced_to: 53
  - symbol: C  # 54
    coordinates: [  0.124426849800000,  0.124826308300000,  0.624340678100000 ]
    mass: 12.010700
    reduced_to: 54
  - symbol: C  # 55
    coordinates: [  0.875173741700000,  0.624340544100000,  0.875573200200000 ]
    mass: 12.010700
    reduced_to: 55
  - symbol: C  # 56
    coordinates: [  0.623988201900000,  0.875950364500000,  0.875950364500000 ]
    mass: 12.010700
    reduced_to: 56
  - symbol: C  # 57
    coordinates: [  0.375659422900000,  0.124826308300000,  0.875573133200000 ]
    mass: 12.010700
    reduced_to: 57
  - symbol: C  # 58
    coordinates: [  0.124049702500000,  0.376011798100000,  0.875950364500000 ]
    mass: 12.010700
    reduced_to: 58
  - symbol: C  # 59
    coordinates: [  0.874825552900000,  0.874106770100000,  0.125174497100000 ]
    mass: 12.010700
    reduced_to: 59
  - symbol: C  # 60
    coordinates: [  0.625317471500000,  0.123511718200000,  0.123511735200000 ]
    mass: 12.010700
    reduced_to: 60
  - symbol: C  # 61
    coordinates: [  0.377148810200000,  0.376253110600000,  0.127221023200000 ]
    mass: 12.010700
    reduced_to: 61
  - symbol: C  # 62
    coordinates: [  0.124426832800000,  0.624340611100000,  0.124826325300000 ]
    mass: 12.010700
    reduced_to: 62
  - symbol: N  # 63
    coordinates: [  0.636453283200000,  0.363546716800000,  0.363546716800000 ]
    mass: 14.006700
    reduced_to: 63

supercell:
  lattice:
  - [    13.486197055502720,     0.000000000000000,     0.000000000000000 ] # a
  - [     0.000000000000000,    13.486197055502720,     0.000000000000000 ] # b
  - [     0.000000000000000,     0.000000000000000,    13.486197055502720 ] # c
  points:
  - symbol: C  # 1
    coordinates: [  0.000136051200000,  0.999863948800000,  0.999863948800000 ]
    mass: 12.010700
    reduced_to: 1
  - symbol: C  # 2
    coordinates: [  0.750043883400000,  0.249956149600000,  0.998712640600000 ]
    mass: 12.010700
    reduced_to: 2
  - symbol: C  # 3
    coordinates: [  0.499857147500000,  0.500142852500000,  0.000141753300000 ]
    mass: 12.010700
    reduced_to: 3
  - symbol: C  # 4
    coordinates: [  0.250096619100000,  0.749903347900000,  0.000274250000000 ]
    mass: 12.010700
    reduced_to: 4
  - symbol: C  # 5
    coordinates: [  0.001287359400000,  0.249956149600000,  0.249956182600000 ]
    mass: 12.010700
    reduced_to: 5
  - symbol: C  # 6
    coordinates: [  0.749688747700000,  0.494292930500000,  0.250311318300000 ]
    mass: 12.010700
    reduced_to: 6
  - symbol: C  # 7
    coordinates: [  0.498521666500000,  0.748057589200000,  0.252780073500000 ]
    mass: 12.010700
    reduced_to: 7
  - symbol: C  # 8
    coordinates: [  0.251056413000000,  0.000895707100000,  0.250399338000000 ]
    mass: 12.010700
    reduced_to: 8
  - symbol: C  # 9
    coordinates: [  0.999858246700000,  0.500142852500000,  0.500142919500000 ]
    mass: 12.010700
    reduced_to: 9
  - symbol: C  # 10
    coordinates: [  0.747219959500000,  0.748057589200000,  0.501478400500000 ]
    mass: 12.010700
    reduced_to: 10
  - symbol: C  # 11
    coordinates: [  0.499857147500000,  0.000141753300000,  0.500142852500000 ]
    mass: 12.010700
    reduced_to: 11
  - symbol: C  # 12
    coordinates: [  0.251942410800000,  0.252780056500000,  0.501478400500000 ]
    mass: 12.010700
    reduced_to: 12
  - symbol: C  # 13
    coordinates: [  0.999725750000000,  0.749903347900000,  0.749903347900000 ]
    mass: 12.010700
    reduced_to: 13
  - symbol: C  # 14
    coordinates: [  0.749600695000000,  0.000895707100000,  0.748943554000000 ]
    mass: 12.010700
    reduced_to: 14
  - symbol: C  # 15
    coordinates: [  0.498521666500000,  0.252780040500000,  0.748057655200000 ]
    mass: 12.010700
    reduced_to: 15
  - symbol: C  # 16
    coordinates: [  0.250348325300000,  0.499408270800000,  0.749651707700000 ]
    mass: 12.010700
    reduced_to: 16
  - symbol: C  # 17
    coordinates: [  0.750043883400000,  0.998712640600000,  0.249956182600000 ]
    mass: 12.010700
    reduced_to: 17
  - symbol: C  # 18
    coordinates: [  0.505707069500000,  0.250311318300000,  0.250311285300000 ]
    mass: 12.010700
    reduced_to: 18
  - symbol: C  # 19
    coordinates: [  0.251942377800000,  0.501478333500000,  0.252780106500000 ]
    mass: 12.010700
    reduced_to: 19
  - symbol: C  # 20
    coordinates: [  0.999104292900000,  0.748943554000000,  0.250399371000000 ]
    mass: 12.010700
    reduced_to: 20
  - symbol: C  # 21
    coordinates: [  0.749688747700000,  0.250311268300000,  0.494292997500000 ]
    mass: 12.010700
    reduced_to: 21
  - symbol: C  # 22
    coordinates: [  0.250348325300000,  0.749651641700000,  0.499408370800000 ]
    mass: 12.010700
    reduced_to: 22
  - symbol: C  # 23
    coordinates: [  0.999981198300000,  0.000018801700000,  0.499957225200000 ]
    mass: 12.010700
    reduced_to: 23
  - symbol: C  # 24
    coordinates: [  0.747219959500000,  0.501478333500000,  0.748057589200000 ]
    mass: 12.010700
    reduced_to: 24
  - symbol: C  # 25
    coordinates: [  0.500591763200000,  0.749651641700000,  0.749651641700000 ]
    mass: 12.010700
    reduced_to: 25
  - symbol: C  # 26
    coordinates: [  0.250096652100000,  0.000274250000000,  0.749903413900000 ]
    mass: 12.010700
    reduced_to: 26
  - symbol: C  # 27
    coordinates: [  0.999104292900000,  0.250399338000000,  0.748943554000000 ]
    mass: 12.010700
    reduced_to: 27
  - symbol: C  # 28
    coordinates: [  0.749600695000000,  0.748943554000000,  0.000895707100000 ]
    mass: 12.010700
    reduced_to: 28
  - symbol: C  # 29
    coordinates: [  0.500042774800000,  0.000018801700000,  0.000018801700000 ]
    mass: 12.010700
    reduced_to: 29
  - symbol: C  # 30
    coordinates: [  0.251056413000000,  0.250399338000000,  0.000895707100000 ]
    mass: 12.010700
    reduced_to: 30
  - symbol: C  # 31
    coordinates: [  0.999981198300000,  0.499957225200000,  0.000018801700000 ]
    mass: 12.010700
    reduced_to: 31
  - symbol: C  # 32
    coordinates: [  0.125893212900000,  0.125174497100000,  0.125174514100000 ]
    mass: 12.010700
    reduced_to: 32
  - symbol: C  # 33
    coordinates: [  0.876488331800000,  0.374682528500000,  0.123511718200000 ]
    mass: 12.010700
    reduced_to: 33
  - symbol: C  # 34
    coordinates: [  0.623746889400000,  0.622851223800000,  0.127221023200000 ]
    mass: 12.010700
    reduced_to: 34
  - symbol: C  # 35
    coordinates: [  0.375659422900000,  0.875573133200000,  0.124826325300000 ]
    mass: 12.010700
    reduced_to: 35
  - symbol: C  # 36
    coordinates: [  0.126070915000000,  0.375536584400000,  0.375536618400000 ]
    mass: 12.010700
    reduced_to: 36
  - symbol: C  # 37
    coordinates: [  0.872778976800000,  0.622851223800000,  0.376253177600000 ]
    mass: 12.010700
    reduced_to: 37
  - symbol: C  # 38
    coordinates: [  0.624463415600000,  0.873929068000000,  0.375536618400000 ]
    mass: 12.010700
    reduced_to: 38
  - symbol: C  # 39
    coordinates: [  0.377148810200000,  0.127220998200000,  0.376253110600000 ]
    mass: 12.010700
    reduced_to: 39
  - symbol: C  # 40
    coordinates: [  0.125091543900000,  0.625101516800000,  0.625101583800000 ]
    mass: 12.010700
    reduced_to: 40
  - symbol: C  # 41
    coordinates: [  0.875173741700000,  0.875573133200000,  0.624340611100000 ]
    mass: 12.010700
    reduced_to: 41
  - symbol: C  # 42
    coordinates: [  0.623746889400000,  0.127221023200000,  0.622851223800000 ]
    mass: 12.010700
    reduced_to: 42
  - symbol: C  # 43
    coordinates: [  0.366219647300000,  0.369912430600000,  0.633780386700000 ]
    mass: 12.010700
    reduced_to: 43
  - symbol: C  # 44
    coordinates: [  0.125067437700000,  0.874932595300000,  0.874932595300000 ]
    mass: 12.010700
    reduced_to: 44
  - symbol: C  # 45
    coordinates: [  0.874825552900000,  0.125174464100000,  0.874106837100000 ]
    mass: 12.010700
    reduced_to: 45
  - symbol: C  # 46
    coordinates: [  0.624463415600000,  0.375536584400000,  0.873929135000000 ]
    mass: 12.010700
    reduced_to: 46
  - symbol: C  # 47
    coordinates: [  0.374898450200000,  0.625101583800000,  0.874908506100000 ]
    mass: 12.010700
    reduced_to: 47
  - symbol: C  # 48
    coordinates: [  0.876488331800000,  0.123511676200000,  0.374682595500000 ]
    mass: 12.010700
    reduced_to: 48
  - symbol: C  # 49
    coordinates: [  0.366219647300000,  0.633780386700000,  0.369912464600000 ]
    mass: 12.010700
    reduced_to: 49
  - symbol: C  # 50
    coordinates: [  0.124049685500000,  0.875950297500000,  0.376011832100000 ]
    mass: 12.010700
    reduced_to: 50
  - symbol: C  # 51
    coordinates: [  0.872779043800000,  0.376253110600000,  0.622851223800000 ]
    mass: 12.010700
    reduced_to: 51
  - symbol: C  # 52
    coordinates: [  0.630087569400000,  0.633780319700000,  0.633780386700000 ]
    mass: 12.010700
    reduced_to: 52
  - symbol: C  # 53
    coordinates: [  0.374898450200000,  0.874908372100000,  0.625101583800000 ]
    mass: 12.010700
    reduced_to: 53
  - symbol: C  # 54
    coordinates: [  0.124426849800000,  0.124826308300000,  0.624340678100000 ]
    mass: 12.010700
    reduced_to: 54
  - symbol: C  # 55
    coordinates: [  0.875173741700000,  0.624340544100000,  0.875573200200000 ]
    mass: 12.010700
    reduced_to: 55
  - symbol: C  # 56
    coordinates: [  0.623988201900000,  0.875950364500000,  0.875950364500000 ]
    mass: 12.010700
    reduced_to: 56
  - symbol: C  # 57
    coordinates: [  0.375659422900000,  0.124826308300000,  0.875573133200000 ]
    mass: 12.010700
    reduced_to: 57
  - symbol: C  # 58
    coordinates: [  0.124049702500000,  0.376011798100000,  0.875950364500000 ]
    mass: 12.010700
    reduced_to: 58
  - symbol: C  # 59
    coordinates: [  0.874825552900000,  0.874106770100000,  0.125174497100000 ]
    mass: 12.010700
    reduced_to: 59
  - symbol: C  # 60
    coordinates: [  0.625317471500000,  0.123511718200000,  0.123511735200000 ]
    mass: 12.010700
    reduced_to: 60
  - symbol: C  # 61
    coordinates: [  0.377148810200000,  0.376253110600000,  0.127221023200000 ]
    mass: 12.010700
    reduced_to: 61
  - symbol: C  # 62
    coordinates: [  0.124426832800000,  0.624340611100000,  0.124826325300000 ]
    mass: 12.010700
    reduced_to: 62
  - symbol: N  # 63
    coordinates: [  0.636453283200000,  0.363546716800000,  0.363546716800000 ]
    mass: 14.006700
    reduced_to: 63
