nqpoint: 1      
natom:   63     
reciprocal_lattice:
- [   0.07414989,   0.00000000,   0.00000000 ] # a*
- [   0.00000000,   0.07414989,   0.00000000 ] # b*
- [   0.00000000,   0.00000000,   0.07414989 ] # c*
phonon:
- q-position: [    0.0000000,    0.0000000,    0.0000000 ]
  dynamical_matrix:
  - [   -0.0735900726,    0.0000000000,    0.1039983781,    0.0000000000,    0.0010998928,    0.0000000000,   -0.0319804597,    0.0000000000,   -0.0000000000,    0.0000000000,    0.0277561773,    0.0000000000,   -0.0000000000,    0.0000000000,   -0.0354680774,    0.0000000000,   -0.0000000000,    0.0000000000,    0.0000181618,    0.0000000000,    0.1516332313,    0.0000000000,    0.0000000000,    0.0000000000,   -0.0008994194,    0.0000000000,    0.0000047927,    0.0000000000,    0.0004107426,    0.0000000000,    0.0824582950,    0.0000000000,   -0.1206330015,    0.0000000000,   -0.0324602737,    0.0000000000,    0.0000143625,    0.0000000000,    0.0000000000,    0.0000000000,   -0.1363890238,    0.0000000000,    0.1886739392,    0.0000000000,    0.0000002049,    0.0000000000,    0.0660749600,    0.0000000000,   -0.0000000027,    0.0000000000,    0.2136730951,    0.0000000000,    0.0000203358,    0.0000000000,   -0.1555450198,    0.0000000000,    0.0029553139,    0.0000000000,    0.0063356011,    0.0000000000,    0.0000000000,    0.0000000000,   -0.0093058871,    0.0000000000,   -0.0000000000,    0.0000000000,    0.0000103533,    0.0000000000,    0.0114096620,    0.0000000000,    0.0000000000,    0.0000000000,    0.0041340172,    0.0000000000,   -0.0234490796,    0.0000000000,    0.0054199189,    0.0000000000,    0.0035345997,    0.0000000000,   -0.0000002530,    0.0000000000,    0.0000000066,    0.0000000000,   -0.2268851071,    0.0000000000,    0.1604128731,    0.0000000000,   -0.0000000000,    0.0000000000,   -0.0490592142,    0.0000000000,    0.0555284818,    0.0000000000,    0.0000000000,    0.0000000000,   -0.1014447985,    0.0000000000,    0.0868822150,    0.0000000000,   -0.0000000000,    0.0000000000,   -0.0150513473,    0.0000000000,    0.0000000000,    0.0000000000,   -0.0181488834,    0.0000000000,    0.0485570347,    0.0000000000,   -0.0000000000,    0.0000000000,   -0.0000000000,    0.0000000000,   -0.0093017133,    0.0000000000,    0.0000000000,    0.0000000000,    0.0059790117,    0.0000000000,   -0.0000000000,    0.0000000000,   -0.1196439865,    0.0000000000,    0.0000000000,    0.0000000000,    0.0000000000,    0.0000000000,    0.0540269646,    0.0000000000,   -0.0345206411,    0.0000000000,    0.0983037022,    0.0000000000,   -0.0378501355,    0.0000000000,    0.0000000000,    0.0000000000,    0.0401094917,    0.0000000000,    0.0000000000,    0.0000000000,    0.0000000001,    0.0000000000,   -0.2943353443,    0.0000000000,    0.1872297433,    0.0000000000,    0.0000000000,    0.0000000000,   -0.0015929140,    0.0000000000,    0.0814329416,    0.0000000000,   -0.0000000000,    0.0000000000,    0.0000000000,    0.0000000000,    0.0000000000,    0.0000000000,    0.0780461660,    0.0000000000,   -0.0009447849,    0.0000000000,    0.0000000000,    0.0000000000,    0.0094404645,    0.0000000000,   -0.0000000000,    0.0000000000,   -0.0034599059,    0.0000000000,    0.0000000000,    0.0000000000,    0.0000000000,    0.0000000000,    0.1312363996,    0.0000000000,    0.0000000000,    0.0000000000,   -0.0320932863,    0.0000000000,    0.0000000001,    0.0000000000,    0.1798090819,    0.0000000000,    0.0000000000,    0.0000000000,   -0.0679158465,    0.0000000000,    0.0000000009,    0.0000000000,    0.1336567348,    0.0000000000,   -0.0825676447,    0.0000000000,    0.0000000000,    0.0000000000,   -0.0000000000,    0.0000000000,    0.0349439628,    0.0000000000,   -0.0708561709,    0.0000000000,    0.1414523392,    0.0000000000,   -0.0000000107,    0.0000000000,   -0.0796686755,    0.0000000000,    0.0000000000,    0.0000000000,    0.0081007402,    0.0000000000,   -0.0319053758,    0.0000000000,    0.0117177062,    0.0000000000,   -0.0000000000,    0.0000000000,   -0.0839349231,    0.0000000000,   -0.0000000000,    0.0000000000,    0.0000000000,    0.0000000000,    0.0613514798,    0.0000000000,   -0.0468632728,    0.0000000000,    0.0000000000,    0.0000000000,    0.0000000000,    0.0000000000,    0.0000000000,    0.0000000000,    0.0361012328,    0.0000000000,    0.0000000000,    0.0000000000,   -0.0911189691,    0.0000000000,    0.0000000000,    0.0000000000,    0.0000000000,    0.0000000000,    0.0955022989,    0.0000000000,   -0.0000000000,    0.0000000000,    0.0726885613,    0.0000000000,   -0.0829543426,    0.0000000000,    0.0000000000,    0.0000000000,    0.0000000000,    0.0000000000,    0.0000000000,    0.0000000000,    0.2914177500,    0.0000000000,    0.0000000000,    0.0000000000,   -0.2039615146,    0.0000000000,   -0.1669323335,    0.0000000000,    0.1835075408,    0.0000000000,    0.0000000000,    0.0000000000,   -0.1604079116,    0.0000000000,    0.0000000000,    0.0000000000,    0.0208714450,    0.0000000000,    0.0000000000,    0.0000000000,    0.0127452560,    0.0000000000,    0.0277932893,    0.0000000000,    0.0000000000,    0.0000000000,    0.0000000000,    0.0000000000,   -0.0664093287,    0.0000000000,    0.0000000000,    0.0000000000,   -0.0611855629,    0.0000000000,    0.0230404614,    0.0000000000,    0.0000000000,    0.0000000000,    0.0403424666,    0.0000000000,    0.1351768316,    0.0000000000,    0.0000000000,    0.0000000000,   -0.0366290643,    0.0000000000,    0.0000000000,    0.0000000000,   -0.0000000000,    0.0000000000,   -0.0484982585,    0.0000000000,    0.0375193362,    0.0000000000,    0.0000000000,    0.0000000000,    0.1045346050,    0.0000000000,   -0.0181769274,    0.0000000000,    0.0000000000,    0.0000000000,    0.0000000000,    0.0000000000,    0.0248101506,    0.0000000000,    0.0000000000,    0.0000000000,   -0.0831290659,    0.0000000000,   -0.0000000000,    0.0000000000,    0.0499688737,    0.0000000000,    0.0000000000,    0.0000000000,   -0.0872163965,    0.0000000000,    0.0832180507,    0.0000000000,   -0.0383586899,    0.0000000000,    0.0000000001,    0.0000000000,    0.0556921906,    0.0000000000,    0.1428254959,    0.0000000000,    0.0061031514,    0.0000000000,   -0.1541354789,    0.0000000000,    0.0094890214,    0.0000000000,   -0.0000000000,    0.0000000000,   -0.0000000306,    0.0000000000,   -0.0014923743,    0.0000000000,    0.1177010605,    0.0000000000,    0.0000000000,    0.0000000000,   -0.0077410488,    0.0000000000,    0.0862009648,    0.0000000000,    0.0000000000,    0.0000000000,   -0.1295242660,    0.0000000000,    0.0844558481,    0.0000000000,    0.0208175330,    0.0000000000,   -0.0000000000,    0.0000000000 ]
  - [    0.0735900652,    0.0000000000,    0.0510466590,    0.0000000000,    0.0906151870,    0.0000000000,   -0.0159902299,    0.0000000000,   -0.0276958906,    0.0000000000,   -0.0277561773,    0.0000000000,    0.0307162561,    0.0000000000,   -0.0177340387,    0.0000000000,   -0.0000000000,    0.0000000000,    0.1313273113,    0.0000000000,    0.0758008871,    0.0000000000,   -0.0000000000,    0.0000000000,   -0.0004455591,    0.0000000000,    0.0007813164,    0.0000000000,    0.0716163495,    0.0000000000,    0.0408734340,    0.0000000000,    0.1206330015,    0.0000000000,   -0.0162425751,    0.0000000000,   -0.0281042404,    0.0000000000,   -0.0000000000,    0.0000000000,    0.1363890238,    0.0000000000,    0.0943371471,    0.0000000000,   -0.1633963220,    0.0000000000,    0.0330374823,    0.0000000000,    0.0572225926,    0.0000000000,    0.1068541589,    0.0000000000,   -0.1850361606,    0.0000000000,    0.1555450198,    0.0000000000,    0.0069644485,    0.0000000000,    0.0006084236,    0.0000000000,    0.0000000000,    0.0000000000,    0.0093058871,    0.0000000000,   -0.0000000000,    0.0000000000,   -0.0098758805,    0.0000000000,    0.0057137972,    0.0000000000,    0.0000000000,    0.0000000000,    0.0223745072,    0.0000000000,   -0.0081443759,    0.0000000000,   -0.0054199189,    0.0000000000,    0.0017670808,    0.0000000000,   -0.0030611796,    0.0000000000,   -0.1964882632,    0.0000000000,   -0.1134425593,    0.0000000000,   -0.1604128731,    0.0000000000,    0.0424865258,    0.0000000000,   -0.0245296071,    0.0000000000,   -0.0555284818,    0.0000000000,   -0.0878537726,    0.0000000000,   -0.0507223992,    0.0000000000,   -0.0868822150,    0.0000000000,   -0.0130348491,    0.0000000000,   -0.0075256737,    0.0000000000,   -0.0000000000,    0.0000000000,    0.0181488834,    0.0000000000,    0.0242785174,    0.0000000000,   -0.0420516256,    0.0000000000,    0.0080555200,    0.0000000000,   -0.0046508566,    0.0000000000,    0.0000000000,    0.0000000000,   -0.0059790117,    0.0000000000,    0.1036147317,    0.0000000000,   -0.0598219933,    0.0000000000,    0.0000000000,    0.0000000000,    0.0467887238,    0.0000000000,    0.0270134823,    0.0000000000,    0.0345206411,    0.0000000000,   -0.0983037022,    0.0000000000,   -0.0189250677,    0.0000000000,   -0.0327791789,    0.0000000000,    0.0200547459,    0.0000000000,   -0.0347358388,    0.0000000000,    0.2549018854,    0.0000000000,   -0.1471676721,    0.0000000000,   -0.1872297433,    0.0000000000,    0.0013795040,    0.0000000000,   -0.0007964570,    0.0000000000,    0.0407164708,    0.0000000000,   -0.0705229961,    0.0000000000,    0.0000000000,    0.0000000000,   -0.0000000000,    0.0000000000,   -0.0780461660,    0.0000000000,   -0.0004723925,    0.0000000000,   -0.0008182077,    0.0000000000,   -0.0094404645,    0.0000000000,    0.0000000000,    0.0000000000,   -0.0017299529,    0.0000000000,    0.0029963664,    0.0000000000,   -0.0000000000,    0.0000000000,   -0.1312363996,    0.0000000000,    0.0277936012,    0.0000000000,   -0.0160466432,    0.0000000000,   -0.1557192327,    0.0000000000,    0.0899045410,    0.0000000000,    0.0588168483,    0.0000000000,   -0.0339579232,    0.0000000000,    0.1157501282,    0.0000000000,    0.0668283667,    0.0000000000,    0.0825676447,    0.0000000000,   -0.0000000000,    0.0000000000,   -0.0302623595,    0.0000000000,    0.0174719814,    0.0000000000,    0.0708561709,    0.0000000000,    0.0707261789,    0.0000000000,    0.1225013138,    0.0000000000,    0.0796686755,    0.0000000000,   -0.0070154468,    0.0000000000,    0.0040503701,    0.0000000000,    0.0319053758,    0.0000000000,   -0.0117177062,    0.0000000000,   -0.0726897757,    0.0000000000,   -0.0419674616,    0.0000000000,    0.0000000000,    0.0000000000,   -0.0531319400,    0.0000000000,    0.0306757399,    0.0000000000,   -0.0234316364,    0.0000000000,   -0.0405847847,    0.0000000000,    0.0000000000,    0.0000000000,    0.0312645847,    0.0000000000,    0.0180506164,    0.0000000000,   -0.0000000000,    0.0000000000,   -0.0455594845,    0.0000000000,   -0.0789113420,    0.0000000000,   -0.0000000000,    0.0000000000,   -0.0955022989,    0.0000000000,   -0.0629501406,    0.0000000000,    0.0363442806,    0.0000000000,   -0.0414771713,    0.0000000000,    0.0718405680,    0.0000000000,    0.0000000000,    0.0000000000,    0.0000000000,    0.0000000000,    0.1457088750,    0.0000000000,   -0.2523751746,    0.0000000000,    0.2039615146,    0.0000000000,    0.1669323335,    0.0000000000,    0.0917537704,    0.0000000000,   -0.1589221921,    0.0000000000,   -0.0802039558,    0.0000000000,   -0.1389173264,    0.0000000000,   -0.0208714450,    0.0000000000,    0.0110377155,    0.0000000000,    0.0063726280,    0.0000000000,    0.0138966447,    0.0000000000,   -0.0240696946,    0.0000000000,   -0.0000000000,    0.0000000000,   -0.0332046644,    0.0000000000,   -0.0575121657,    0.0000000000,    0.0611855629,    0.0000000000,    0.0115202307,    0.0000000000,    0.0199536249,    0.0000000000,   -0.0403424666,    0.0000000000,    0.0675884158,    0.0000000000,    0.1170665702,    0.0000000000,    0.0366290643,    0.0000000000,   -0.0000000000,    0.0000000000,   -0.0420007239,    0.0000000000,   -0.0242491293,    0.0000000000,    0.0187596681,    0.0000000000,   -0.0324926983,    0.0000000000,   -0.1045346050,    0.0000000000,   -0.0090884637,    0.0000000000,    0.0157416809,    0.0000000000,    0.0000000000,    0.0000000000,    0.0124050753,    0.0000000000,   -0.0214862207,    0.0000000000,   -0.0415645329,    0.0000000000,   -0.0719918829,    0.0000000000,   -0.0499688737,    0.0000000000,   -0.0755316150,    0.0000000000,   -0.0436081983,    0.0000000000,   -0.0832180507,    0.0000000000,   -0.0191793449,    0.0000000000,    0.0332196000,    0.0000000000,   -0.0556921906,    0.0000000000,   -0.1428254959,    0.0000000000,    0.1365368161,    0.0000000000,   -0.0717822553,    0.0000000000,   -0.0094890214,    0.0000000000,   -0.0000000000,    0.0000000000,    0.0012924188,    0.0000000000,   -0.0007462136,    0.0000000000,    0.0588505303,    0.0000000000,    0.1019321085,    0.0000000000,    0.0077410488,    0.0000000000,   -0.0862009648,    0.0000000000,    0.1121713048,    0.0000000000,   -0.0647621330,    0.0000000000,   -0.0844558481,    0.0000000000,    0.0104087665,    0.0000000000,    0.0180285124,    0.0000000000 ]
  - [    0.0735900654,    0.0000000000,    0.0529517295,    0.0000000000,   -0.0895152938,    0.0000000000,   -0.0159902299,    0.0000000000,    0.0276958906,    0.0000000000,   -0.0277561773,    0.0000000000,   -0.0307162561,    0.0000000000,   -0.0177340387,    0.0000000000,    0.0000000000,    0.0000000000,   -0.1313091495,    0.0000000000,    0.0758323442,    0.0000000000,    0.0000000000,    0.0000000000,   -0.0004538603,    0.0000000000,   -0.0007765237,    0.0000000000,   -0.0712056069,    0.0000000000,    0.0415848610,    0.0000000000,    0.1206330015,    0.0000000000,   -0.0162176986,    0.0000000000,    0.0281186029,    0.0000000000,    0.0000000000,    0.0000000000,    0.1363890238,    0.0000000000,    0.0943367922,    0.0000000000,    0.1633965269,    0.0000000000,    0.0330374777,    0.0000000000,   -0.0572225952,    0.0000000000,    0.1068189363,    0.0000000000,    0.1850564964,    0.0000000000,    0.1555450198,    0.0000000000,   -0.0040091345,    0.0000000000,    0.0057271775,    0.0000000000,    0.0000000000,    0.0000000000,    0.0093058871,    0.0000000000,    0.0000000000,    0.0000000000,    0.0098862338,    0.0000000000,    0.0056958648,    0.0000000000,   -0.0000000000,    0.0000000000,   -0.0182404901,    0.0000000000,   -0.0153047037,    0.0000000000,   -0.0054199189,    0.0000000000,    0.0017675189,    0.0000000000,    0.0030609267,    0.0000000000,    0.1964882698,    0.0000000000,   -0.1134425478,    0.0000000000,   -0.1604128731,    0.0000000000,   -0.0424865258,    0.0000000000,   -0.0245296071,    0.0000000000,   -0.0555284818,    0.0000000000,    0.0878537726,    0.0000000000,   -0.0507223992,    0.0000000000,   -0.0868822150,    0.0000000000,    0.0130348491,    0.0000000000,   -0.0075256737,    0.0000000000,    0.0000000000,    0.0000000000,    0.0181488834,    0.0000000000,    0.0242785174,    0.0000000000,    0.0420516256,    0.0000000000,   -0.0080555200,    0.0000000000,   -0.0046508566,    0.0000000000,    0.0000000000,    0.0000000000,   -0.0059790117,    0.0000000000,   -0.1036147317,    0.0000000000,   -0.0598219933,    0.0000000000,   -0.0000000000,    0.0000000000,   -0.0467887238,    0.0000000000,    0.0270134823,    0.0000000000,    0.0345206411,    0.0000000000,   -0.0983037022,    0.0000000000,   -0.0189250677,    0.0000000000,    0.0327791789,    0.0000000000,    0.0200547459,    0.0000000000,    0.0347358388,    0.0000000000,   -0.2549018853,    0.0000000000,   -0.1471676722,    0.0000000000,   -0.1872297433,    0.0000000000,   -0.0013795040,    0.0000000000,   -0.0007964570,    0.0000000000,    0.0407164708,    0.0000000000,    0.0705229961,    0.0000000000,   -0.0000000000,    0.0000000000,   -0.0000000000,    0.0000000000,   -0.0780461660,    0.0000000000,   -0.0004723925,    0.0000000000,    0.0008182077,    0.0000000000,   -0.0094404645,    0.0000000000,   -0.0000000000,    0.0000000000,   -0.0017299529,    0.0000000000,   -0.0029963664,    0.0000000000,   -0.0000000000,    0.0000000000,   -0.1312363996,    0.0000000000,   -0.0277936012,    0.0000000000,   -0.0160466432,    0.0000000000,    0.1557192328,    0.0000000000,    0.0899045408,    0.0000000000,   -0.0588168483,    0.0000000000,   -0.0339579232,    0.0000000000,   -0.1157501273,    0.0000000000,    0.0668283682,    0.0000000000,    0.0825676447,    0.0000000000,   -0.0000000000,    0.0000000000,    0.0302623595,    0.0000000000,    0.0174719814,    0.0000000000,    0.0708561709,    0.0000000000,    0.0707261603,    0.0000000000,   -0.1225013245,    0.0000000000,    0.0796686755,    0.0000000000,    0.0070154468,    0.0000000000,    0.0040503701,    0.0000000000,    0.0319053758,    0.0000000000,   -0.0117177062,    0.0000000000,    0.0726897757,    0.0000000000,   -0.0419674616,    0.0000000000,   -0.0000000000,    0.0000000000,    0.0531319400,    0.0000000000,    0.0306757399,    0.0000000000,   -0.0234316364,    0.0000000000,    0.0405847847,    0.0000000000,   -0.0000000000,    0.0000000000,   -0.0312645847,    0.0000000000,    0.0180506164,    0.0000000000,    0.0000000000,    0.0000000000,   -0.0455594845,    0.0000000000,    0.0789113420,    0.0000000000,    0.0000000000,    0.0000000000,   -0.0955022989,    0.0000000000,    0.0629501406,    0.0000000000,    0.0363442806,    0.0000000000,   -0.0414771713,    0.0000000000,   -0.0718405680,    0.0000000000,   -0.0000000000,    0.0000000000,   -0.0000000000,    0.0000000000,    0.1457088750,    0.0000000000,    0.2523751746,    0.0000000000,    0.2039615146,    0.0000000000,    0.1669323335,    0.0000000000,    0.0917537704,    0.0000000000,    0.1589221921,    0.0000000000,   -0.0802039558,    0.0000000000,    0.1389173264,    0.0000000000,   -0.0208714450,    0.0000000000,   -0.0110377155,    0.0000000000,    0.0063726280,    0.0000000000,    0.0138966447,    0.0000000000,    0.0240696946,    0.0000000000,    0.0000000000,    0.0000000000,   -0.0332046644,    0.0000000000,    0.0575121657,    0.0000000000,    0.0611855629,    0.0000000000,    0.0115202307,    0.0000000000,   -0.0199536249,    0.0000000000,   -0.0403424666,    0.0000000000,    0.0675884158,    0.0000000000,   -0.1170665702,    0.0000000000,    0.0366290643,    0.0000000000,    0.0000000000,    0.0000000000,    0.0420007239,    0.0000000000,   -0.0242491293,    0.0000000000,    0.0187596681,    0.0000000000,    0.0324926983,    0.0000000000,   -0.1045346050,    0.0000000000,   -0.0090884637,    0.0000000000,   -0.0157416809,    0.0000000000,   -0.0000000000,    0.0000000000,    0.0124050753,    0.0000000000,    0.0214862207,    0.0000000000,   -0.0415645329,    0.0000000000,    0.0719918828,    0.0000000000,   -0.0499688737,    0.0000000000,    0.0755316150,    0.0000000000,   -0.0436081983,    0.0000000000,   -0.0832180507,    0.0000000000,   -0.0191793451,    0.0000000000,   -0.0332195999,    0.0000000000,   -0.0556921906,    0.0000000000,   -0.1428254959,    0.0000000000,   -0.1304336646,    0.0000000000,   -0.0823532236,    0.0000000000,   -0.0094890214,    0.0000000000,    0.0000000000,    0.0000000000,   -0.0012924494,    0.0000000000,   -0.0007461607,    0.0000000000,    0.0588505303,    0.0000000000,   -0.1019321085,    0.0000000000,    0.0077410488,    0.0000000000,   -0.0862009648,    0.0000000000,   -0.1121713048,    0.0000000000,   -0.0647621330,    0.0000000000,   -0.0844558481,    0.0000000000,    0.0104087665,    0.0000000000,   -0.0180285124,    0.0000000000 ]
  - [   -0.0727012750,    0.0000000000,    0.1025012278,    0.0000000000,    0.0010743325,    0.0000000000,   -0.0399510197,    0.0000000000,    0.0536585041,    0.0000000000,   -0.0327387768,    0.0000000000,   -0.1149062246,    0.0000000000,   -0.0565644489,    0.0000000000,    0.0145564602,    0.0000000000,    0.0432488612,    0.0000000000,    0.0676551592,    0.0000000000,   -0.0934958157,    0.0000000000,   -0.1217895598,    0.0000000000,    0.0207932938,    0.0000000000,    0.0109439609,    0.0000000000,    0.0373187133,    0.0000000000,   -0.0610971896,    0.0000000000,   -0.0828571097,    0.0000000000,   -0.0056712870,    0.0000000000,    0.1015859591,    0.0000000000,   -0.0965343916,    0.0000000000,   -0.0503665499,    0.0000000000,    0.0304963844,    0.0000000000,   -0.0575555012,    0.0000000000,    0.0155280394,    0.0000000000,    0.0025316309,    0.0000000000,    0.1366520483,    0.0000000000,   -0.0486193883,    0.0000000000,    0.0219910007,    0.0000000000,   -0.1226082307,    0.0000000000,   -0.0866047094,    0.0000000000,    0.0206788552,    0.0000000000,   -0.0205436197,    0.0000000000,   -0.0067158660,    0.0000000000,   -0.0269700226,    0.0000000000,   -0.1003559884,    0.0000000000,   -0.0545387980,    0.0000000000,   -0.1142702512,    0.0000000000,   -0.0809257107,    0.0000000000,    0.1468474344,    0.0000000000,    0.0272102655,    0.0000000000,   -0.0010975581,    0.0000000000,   -0.0190325585,    0.0000000000,   -0.0020263309,    0.0000000000,    0.0028785393,    0.0000000000,    0.0749955052,    0.0000000000,   -0.0837742440,    0.0000000000,   -0.0249616348,    0.0000000000,    0.0364642677,    0.0000000000,    0.0860742453,    0.0000000000,    0.1253541340,    0.0000000000,    0.0995551427,    0.0000000000,    0.0933431343,    0.0000000000,    0.0059456420,    0.0000000000,   -0.0032205989,    0.0000000000,   -0.1124823874,    0.0000000000,   -0.0684473695,    0.0000000000,   -0.0758331318,    0.0000000000,   -0.0964903970,    0.0000000000,    0.0831854682,    0.0000000000,    0.0295804526,    0.0000000000,   -0.0727344826,    0.0000000000,    0.0434120163,    0.0000000000,    0.0392464474,    0.0000000000,   -0.1002786060,    0.0000000000,    0.0271803720,    0.0000000000,   -0.0128021644,    0.0000000000,   -0.0278202337,    0.0000000000,   -0.1504994293,    0.0000000000,   -0.0698900251,    0.0000000000,    0.0724372379,    0.0000000000,    0.0520255689,    0.0000000000,    0.0136461462,    0.0000000000,   -0.0534405939,    0.0000000000,    0.1919462896,    0.0000000000,   -0.0177188437,    0.0000000000,    0.0056280201,    0.0000000000,    0.0114475772,    0.0000000000,   -0.0945861926,    0.0000000000,   -0.1148919229,    0.0000000000,   -0.0086091079,    0.0000000000,   -0.0352702689,    0.0000000000,    0.0216015541,    0.0000000000,    0.0755723016,    0.0000000000,   -0.0165834205,    0.0000000000,    0.0745362315,    0.0000000000,   -0.1449115876,    0.0000000000,   -0.0082700750,    0.0000000000,    0.0172048143,    0.0000000000,    0.0616517756,    0.0000000000,   -0.0320332712,    0.0000000000,   -0.0577495043,    0.0000000000,   -0.1442690368,    0.0000000000,    0.0314419705,    0.0000000000,    0.0820279929,    0.0000000000,    0.0762740585,    0.0000000000,    0.0791265769,    0.0000000000,    0.0585248429,    0.0000000000,    0.1056147398,    0.0000000000,   -0.1134756384,    0.0000000000,    0.0309557970,    0.0000000000,    0.0216443227,    0.0000000000,   -0.0106956280,    0.0000000000,   -0.0772599306,    0.0000000000,   -0.0051517487,    0.0000000000,   -0.1136306526,    0.0000000000,   -0.0212884380,    0.0000000000,    0.0026920088,    0.0000000000,   -0.0697104763,    0.0000000000,    0.0376008162,    0.0000000000,    0.0570242838,    0.0000000000,   -0.1170700304,    0.0000000000,    0.0327410135,    0.0000000000,    0.0205949469,    0.0000000000,    0.0660458889,    0.0000000000,   -0.0508589317,    0.0000000000,    0.0570487835,    0.0000000000,    0.0740630910,    0.0000000000,   -0.0256080419,    0.0000000000,    0.0452270671,    0.0000000000,    0.0277621069,    0.0000000000,   -0.0277912127,    0.0000000000,    0.0427648685,    0.0000000000,    0.0553548878,    0.0000000000,    0.1060143796,    0.0000000000,    0.1070250353,    0.0000000000,    0.0086112638,    0.0000000000,   -0.0649732579,    0.0000000000,    0.1567386078,    0.0000000000,    0.0011019831,    0.0000000000,   -0.0436727925,    0.0000000000,    0.0266164673,    0.0000000000,   -0.0480018677,    0.0000000000,    0.1891682856,    0.0000000000,    0.0493681774,    0.0000000000,    0.0692704096,    0.0000000000,    0.1280655832,    0.0000000000,   -0.0120899298,    0.0000000000,    0.0211944429,    0.0000000000,   -0.0428970104,    0.0000000000,    0.0091622648,    0.0000000000,   -0.0750872553,    0.0000000000,    0.0455518783,    0.0000000000,    0.0611684008,    0.0000000000,    0.0137460633,    0.0000000000,   -0.0324091948,    0.0000000000,   -0.0518848242,    0.0000000000,    0.1241617928,    0.0000000000,    0.0786325127,    0.0000000000,   -0.0233624656,    0.0000000000,    0.0607656682,    0.0000000000,    0.0344454731,    0.0000000000,   -0.0652324940,    0.0000000000,    0.1384566172,    0.0000000000,    0.0908807652,    0.0000000000,   -0.0555599296,    0.0000000000,   -0.0752806760,    0.0000000000,    0.0396569086,    0.0000000000,   -0.0907310350,    0.0000000000,    0.0518854593,    0.0000000000,    0.0437821567,    0.0000000000,    0.0564839415,    0.0000000000,   -0.0172251821,    0.0000000000,    0.1504735229,    0.0000000000,   -0.1928519524,    0.0000000000,    0.0455832442,    0.0000000000,   -0.0008346454,    0.0000000000,    0.0600045968,    0.0000000000,    0.0639750852,    0.0000000000,    0.0637534484,    0.0000000000,    0.0261419410,    0.0000000000,    0.0203371766,    0.0000000000,    0.0569960014,    0.0000000000,   -0.0611945574,    0.0000000000,    0.1607557252,    0.0000000000,   -0.0564050946,    0.0000000000,   -0.0685194841,    0.0000000000,   -0.0658985195,    0.0000000000,   -0.0486743673,    0.0000000000,   -0.0383550356,    0.0000000000,    0.0871740143,    0.0000000000,    0.0066803927,    0.0000000000,    0.1394767438,    0.0000000000,    0.0717233046,    0.0000000000,    0.0045756847,    0.0000000000,    0.0333202136,    0.0000000000,   -0.0150103464,    0.0000000000,    0.1375907371,    0.0000000000,   -0.0027145604,    0.0000000000 ]