 vasp.5.4.4.18Apr17-6-g9f103f2a35 (build Oct 24 2023 15:04:34) complex          
  
 executed on             LinuxIFC date 2024.02.09  08:25:59
 running on  256 total cores
 distrk:  each k-point on  128 cores,    2 groups
 distr:  one band on NCORES_PER_BAND=   2 cores,   64 groups


--------------------------------------------------------------------------------------------------------


 INCAR:
 POTCAR:    PAW_PBE C 08Apr2002                   
 POTCAR:    PAW_PBE N 08Apr2002                   

 ----------------------------------------------------------------------------- 
|                                                                             |
|           W    W    AA    RRRRR   N    N  II  N    N   GGGG   !!!           |
|           W    W   A  A   R    R  NN   N  II  NN   N  G    G  !!!           |
|           W    W  A    A  R    R  N N  N  II  N N  N  G       !!!           |
|           W WW W  AAAAAA  RRRRR   N  N N  II  N  N N  G  GGG   !            |
|           WW  WW  A    A  R   R   N   NN  II  N   NN  G    G                |
|           W    W  A    A  R    R  N    N  II  N    N   GGGG   !!!           |
|                                                                             |
|      For optimal performance we recommend to set                            |
|        NCORE= 4 - approx SQRT( number of cores)                             |
|      NCORE specifies how many cores store one orbital (NPAR=cpu/NCORE).     |
|      This setting can  greatly improve the performance of VASP for DFT.     |
|      The default,   NCORE=1            might be grossly inefficient         |
|      on modern multi-core architectures or massively parallel machines.     |
|      Do your own testing !!!!                                               |
|      Unfortunately you need to use the default for GW and RPA calculations. |
|      (for HF NCORE is supported but not extensively tested yet)             |
|                                                                             |
 ----------------------------------------------------------------------------- 


 ----------------------------------------------------------------------------- 
|                                                                             |
|           W    W    AA    RRRRR   N    N  II  N    N   GGGG   !!!           |
|           W    W   A  A   R    R  NN   N  II  NN   N  G    G  !!!           |
|           W    W  A    A  R    R  N N  N  II  N N  N  G       !!!           |
|           W WW W  AAAAAA  RRRRR   N  N N  II  N  N N  G  GGG   !            |
|           WW  WW  A    A  R   R   N   NN  II  N   NN  G    G                |
|           W    W  A    A  R    R  N    N  II  N    N   GGGG   !!!           |
|                                                                             |
|      You have enabled k-point parallelism (KPAR>1).                         |
|      This developmental code was originally  written by Paul Kent at ORNL,  |
|      and carefully double checked in Vienna.                                |
|      GW as well as linear response parallelism added by Martijn Marsman     |
|      and Georg Kresse.                                                      |
|      Carefully verify results versus KPAR=1.                                |
|      Report problems to Paul Kent and Vienna.                               |
|                                                                             |
 ----------------------------------------------------------------------------- 

 POTCAR:    PAW_PBE C 08Apr2002                   
   VRHFIN =C: s2p2                                                              
   LEXCH  = PE                                                                  
   EATOM  =   147.1560 eV,   10.8157 Ry                                         
                                                                                
   TITEL  = PAW_PBE C 08Apr2002                                                 
   LULTRA =        F    use ultrasoft PP ?                                      
   IUNSCR =        1    unscreen: 0-lin 1-nonlin 2-no                           
   RPACOR =    1.200    partial core radius                                     
   POMASS =   12.011; ZVAL   =    4.000    mass and valenz                      
   RCORE  =    1.500    outmost cutoff radius                                   
   RWIGS  =    1.630; RWIGS  =    0.863    wigner-seitz radius (au A)           
   ENMAX  =  400.000; ENMIN  =  300.000 eV                                      
   ICORE  =        2    local potential                                         
   LCOR   =        T    correct aug charges                                     
   LPAW   =        T    paw PP                                                  
   EAUG   =  644.873                                                            
   DEXC   =    0.000                                                            
   RMAX   =    1.529    core radius for proj-oper                               
   RAUG   =    1.300    factor for augmentation sphere                          
   RDEP   =    1.501    radius for radial grids                                 
   RDEPT  =    1.300    core radius for aug-charge                              
                                                                                
   Atomic configuration                                                         
    4 entries                                                                   
     n  l   j            E        occ.                                          
     1  0  0.50      -273.3789   2.0000                                         
     2  0  0.50       -13.7508   2.0000                                         
     2  1  0.50        -5.2854   2.0000                                         
     3  2  1.50        -5.4423   0.0000                                         
   Description                                                                  
     l       E           TYP  RCUT    TYP  RCUT                                 
     0    -13.7508458     23  1.200                                             
     0     -8.2022199     23  1.200                                             
     1     -5.2854383     23  1.500                                             
     1     34.0145650     23  1.500                                             
     2     -5.4423304      7  1.500                                             
  local pseudopotential read in
  partial core-charges read in
  partial kinetic energy density read in
  atomic valenz-charges read in
  non local Contribution for L=           0  read in
    real space projection operators read in
  non local Contribution for L=           0  read in
    real space projection operators read in
  non local Contribution for L=           1  read in
    real space projection operators read in
  non local Contribution for L=           1  read in
    real space projection operators read in
    PAW grid and wavefunctions read in
 
   number of l-projection  operators is LMAX  =           4
   number of lm-projection operators is LMMAX =           8
 
 POTCAR:    PAW_PBE N 08Apr2002                   
   VRHFIN =N: s2p3                                                              
   LEXCH  = PE                                                                  
   EATOM  =   264.5486 eV,   19.4438 Ry                                         
                                                                                
   TITEL  = PAW_PBE N 08Apr2002                                                 
   LULTRA =        F    use ultrasoft PP ?                                      
   IUNSCR =        1    unscreen: 0-lin 1-nonlin 2-no                           
   RPACOR =    1.200    partial core radius                                     
   POMASS =   14.001; ZVAL   =    5.000    mass and valenz                      
   RCORE  =    1.500    outmost cutoff radius                                   
   RWIGS  =    1.400; RWIGS  =    0.741    wigner-seitz radius (au A)           
   ENMAX  =  400.000; ENMIN  =  300.000 eV                                      
   ICORE  =        2    local potential                                         
   LCOR   =        T    correct aug charges                                     
   LPAW   =        T    paw PP                                                  
   EAUG   =  627.112                                                            
   DEXC   =    0.000                                                            
   RMAX   =    1.529    core radius for proj-oper                               
   RAUG   =    1.300    factor for augmentation sphere                          
   RDEP   =    1.514    radius for radial grids                                 
   RDEPT  =    1.338    core radius for aug-charge                              
                                                                                
   Atomic configuration                                                         
    4 entries                                                                   
     n  l   j            E        occ.                                          
     1  0  0.50      -384.7179   2.0000                                         
     2  0  0.50       -18.5828   2.0000                                         
     2  1  0.50        -7.0898   3.0000                                         
     3  2  1.50        -6.8029   0.0000                                         
   Description                                                                  
     l       E           TYP  RCUT    TYP  RCUT                                 
     0    -18.5828119     23  1.200                                             
     0    -13.5018863     23  1.200                                             
     1     -7.0897853     23  1.500                                             
     1      9.5240782     23  1.500                                             
     2     -6.8029130      7  1.500                                             
  local pseudopotential read in
  partial core-charges read in
  partial kinetic energy density read in
  atomic valenz-charges read in
  non local Contribution for L=           0  read in
    real space projection operators read in
  non local Contribution for L=           0  read in
    real space projection operators read in
  non local Contribution for L=           1  read in
    real space projection operators read in
  non local Contribution for L=           1  read in
    real space projection operators read in
    PAW grid and wavefunctions read in
 
   number of l-projection  operators is LMAX  =           4
   number of lm-projection operators is LMMAX =           8
 

 ----------------------------------------------------------------------------- 
|                                                                             |
|  ADVICE TO THIS USER RUNNING 'VASP/VAMP'   (HEAR YOUR MASTER'S VOICE ...):  |
|                                                                             |
|      You have a (more or less) 'large supercell' and for larger cells       |
|      it might be more efficient to use real space projection opertators     |
|      So try LREAL= Auto  in the INCAR   file.                               |
|      Mind:          For very  accurate calculation you might also keep the  |
|      reciprocal projection scheme          (i.e. LREAL=.FALSE.)             |
|                                                                             |
 ----------------------------------------------------------------------------- 

  PAW_PBE C 08Apr2002                   :
 energy of atom  1       EATOM= -147.1560
 kinetic energy error for atom=    0.0076 (will be added to EATOM!!)
  PAW_PBE N 08Apr2002                   :
 energy of atom  2       EATOM= -264.5486
 kinetic energy error for atom=    0.0138 (will be added to EATOM!!)
 
 
 POSCAR: Generated from the PW2PY python module  
  positions in direct lattice
  No initial velocities read in
 exchange correlation table for  LEXCH =        8
   RHO(1)=    0.500       N(1)  =     2000
   RHO(2)=  100.500       N(2)  =     4000

 VTST: version 3.1, (03/28/14)

 CHAIN: initializing optimizer
 
 OPT: Using VASP Conjugate-Gradient optimizer
 CHAIN: Read ICHAIN            0
 
 POSCAR: Generated from the PW2PY python module  
  positions in direct lattice
  No initial velocities read in
 


--------------------------------------------------------------------------------------------------------


 ion  position               nearest neighbor table
   1  0.000  1.000  1.000-  12 1.55  13 1.55  27 1.55  32 1.55
   2  0.624  0.624  0.126-  35 1.54  39 1.55  38 1.55  60 1.56
   3  0.376  0.876  0.124-  61 1.53  40 1.55  36 1.55  39 1.55
   4  0.126  0.376  0.376-  41 1.54  51 1.55  44 1.55  37 1.55
   5  0.874  0.624  0.376-  41 1.54  42 1.55  38 1.55  52 1.56
   6  0.624  0.874  0.376-  43 1.54  39 1.55  42 1.55  49 1.55
   7  0.376  0.126  0.376-  43 1.54  44 1.55  50 1.55  40 1.56
   8  0.126  0.624  0.624-  41 1.54  54 1.55  62 1.55  45 1.55
   9  0.876  0.876  0.624-  55 1.53  46 1.55  45 1.55  42 1.55
  10  0.624  0.126  0.624-  43 1.54  48 1.55  53 1.55  46 1.56
  11  0.363  0.362  0.637-  44 1.48  48 1.48  62 1.49
  12  0.126  0.874  0.874-  58 1.54  36 1.54  45 1.54   1 1.55
  13  0.875  0.125  0.875-  59 1.54  46 1.54  34 1.54   1 1.55
  14  0.624  0.376  0.874-  35 1.54  48 1.55  56 1.55  34 1.55
  15  0.875  0.375  0.125-  47 1.54  38 1.55  37 1.55  34 1.55
  16  0.376  0.624  0.874-  35 1.54  57 1.55  62 1.55  36 1.55
  17  0.363  0.637  0.362-  39 1.48  51 1.48  54 1.49
  18  0.124  0.876  0.376-  55 1.54  52 1.55  40 1.55  54 1.56
  19  0.874  0.376  0.624-  41 1.54  56 1.55  53 1.55  59 1.56
  20  0.638  0.637  0.637-  56 1.48  42 1.48  57 1.49
  21  0.376  0.874  0.624-  43 1.54  54 1.55  57 1.55  58 1.55
  22  0.124  0.124  0.624-  55 1.53  59 1.55  58 1.55  44 1.55
  23  0.876  0.624  0.876-  47 1.53  60 1.55  45 1.55  56 1.55
  24  0.624  0.876  0.876-  61 1.54  60 1.55  46 1.55  57 1.56
  25  0.376  0.124  0.876-  61 1.53  33 1.55  58 1.55  48 1.55
  26  0.124  0.376  0.876-  47 1.54  33 1.55  59 1.55  62 1.56
  27  0.875  0.875  0.125-  52 1.54  60 1.54  49 1.54   1 1.55
  28  0.625  0.125  0.125-  61 1.54  50 1.55  49 1.55  34 1.55
  29  0.376  0.376  0.126-  35 1.54  51 1.55  50 1.55  33 1.56
  30  0.875  0.125  0.375-  55 1.54  53 1.55  49 1.55  37 1.55
  31  0.124  0.624  0.124-  47 1.53  52 1.55  36 1.55  51 1.55
  32  0.125  0.125  0.125-  40 1.54  33 1.54  37 1.54   1 1.55
  33  0.251  0.250  0.001-  32 1.54  25 1.55  26 1.55  29 1.56
  34  0.750  0.250  0.999-  13 1.54  15 1.55  28 1.55  14 1.55
  35  0.500  0.500  1.000-  29 1.54   2 1.54  14 1.54  16 1.54
  36  0.250  0.750  0.999-  12 1.54  16 1.55  31 1.55   3 1.55
  37  0.001  0.250  0.250-  32 1.54  15 1.55  30 1.55   4 1.55
  38  0.749  0.497  0.251-  63 1.49  15 1.55   5 1.55   2 1.55
  39  0.498  0.749  0.251-  17 1.48   2 1.55   6 1.55   3 1.55
  40  0.251  0.001  0.250-  32 1.54   3 1.55  18 1.55   7 1.56
  41  0.000  0.500  0.500-  19 1.54   5 1.54   4 1.54   8 1.54
  42  0.749  0.749  0.502-  20 1.48   5 1.55   6 1.55   9 1.55
  43  0.500  1.000  0.500-   7 1.54  10 1.54   6 1.54  21 1.54
  44  0.251  0.251  0.502-  11 1.48   7 1.55   4 1.55  22 1.55
  45  0.001  0.750  0.750-  12 1.54   8 1.55   9 1.55  23 1.55
  46  0.750  0.001  0.749-  13 1.54   9 1.55  24 1.55  10 1.56
  47  0.999  0.500  0.001-  23 1.53  31 1.53  26 1.54  15 1.54
  48  0.498  0.251  0.749-  11 1.48  10 1.55  14 1.55  25 1.55
  49  0.750  0.999  0.250-  27 1.54  30 1.55  28 1.55   6 1.55
  50  0.503  0.251  0.251-  63 1.49  28 1.55  29 1.55   7 1.55
  51  0.251  0.502  0.251-  17 1.48  29 1.55   4 1.55  31 1.55
  52  0.999  0.749  0.250-  27 1.54  31 1.55  18 1.55   5 1.56
  53  0.749  0.251  0.497-  63 1.49  30 1.55  10 1.55  19 1.55
  54  0.251  0.749  0.498-  17 1.49  21 1.55   8 1.55  18 1.56
  55  0.999  0.001  0.500-   9 1.53  22 1.53  18 1.54  30 1.54
  56  0.749  0.502  0.749-  20 1.48  19 1.55  14 1.55  23 1.55
  57  0.502  0.749  0.749-  20 1.49  21 1.55  16 1.55  24 1.56
  58  0.250  0.999  0.750-  12 1.54  21 1.55  25 1.55  22 1.55
  59  0.999  0.250  0.749-  13 1.54  22 1.55  26 1.55  19 1.56
  60  0.750  0.749  0.001-  27 1.54  23 1.55  24 1.55   2 1.56
  61  0.500  0.001  0.001-  25 1.53   3 1.53  24 1.54  28 1.54
  62  0.251  0.498  0.749-  11 1.49   8 1.55  16 1.55  26 1.56
  63  0.632  0.368  0.368-  50 1.49  38 1.49  53 1.49
 
  LATTYP: Found a simple cubic cell.
 ALAT       =     7.1365881140
  
  Lattice vectors:
  
 A1 = (   7.1365881140,   0.0000000000,   0.0000000000)
 A2 = (   0.0000000000,   7.1365881140,   0.0000000000)
 A3 = (   0.0000000000,   0.0000000000,   7.1365881140)


Analysis of symmetry for initial positions (statically):
=====================================================================
 Subroutine PRICEL returns:
 Original cell was already a primitive cell.
 

 Routine SETGRP: Setting up the symmetry group for a 
 simple cubic supercell.


 Subroutine GETGRP returns: Found  6 space group operations
 (whereof  6 operations were pure point group operations)
 out of a pool of 48 trial point group operations.


The static configuration has the point symmetry C_3v.


Analysis of symmetry for dynamics (positions and initial velocities):
=====================================================================
 Subroutine PRICEL returns:
 Original cell was already a primitive cell.
 

 Routine SETGRP: Setting up the symmetry group for a 
 simple cubic supercell.


 Subroutine GETGRP returns: Found  6 space group operations
 (whereof  6 operations were pure point group operations)
 out of a pool of 48 trial point group operations.


The dynamic configuration has the point symmetry C_3v.


Analysis of structural, dynamic, and magnetic symmetry:
=====================================================================
 Subroutine PRICEL returns:
 Original cell was already a primitive cell.
 

 Routine SETGRP: Setting up the symmetry group for a 
 simple cubic supercell.


 Subroutine GETGRP returns: Found  6 space group operations
 (whereof  6 operations were pure point group operations)
 out of a pool of 48 trial point group operations.


The magnetic configuration has the point symmetry C_3v.


 Subroutine INISYM returns: Found  6 space group operations
 (whereof  6 operations are pure point group operations),
 and found     1 'primitive' translations

 
 
 KPOINTS: K-Spacing Value to Generate K-Mesh: 0.00

Automatic generation of k-mesh.
Space group operators:
 irot       det(A)        alpha          n_x          n_y          n_z        tau_x        tau_y        tau_z
    1     1.000000     0.000000     1.000000     0.000000     0.000000     0.000000     0.000000     0.000000
    2     1.000000   120.000000    -0.577350     0.577350     0.577350     0.000000     0.000000     0.000000
    3    -1.000000   180.000000     0.707107     0.000000     0.707107     0.000000     0.000000     0.000000
    4    -1.000000   180.000000     0.707107     0.707107     0.000000     0.000000     0.000000     0.000000
    5     1.000000   120.000000     0.577350    -0.577350    -0.577350     0.000000     0.000000     0.000000
    6    -1.000000   180.000000     0.000000    -0.707107     0.707107     0.000000     0.000000     0.000000
 
 Subroutine IBZKPT returns following result:
 ===========================================
 
 Found      6 irreducible k-points:
 
 Following reciprocal coordinates:
            Coordinates               Weight
  0.000000  0.000000  0.000000      1.000000
  0.333333  0.000000  0.000000      6.000000
  0.333333  0.333333  0.000000      6.000000
 -0.333333  0.333333  0.000000      6.000000
  0.333333  0.333333  0.333333      6.000000
 -0.333333  0.333333  0.333333      2.000000
 
 Following cartesian coordinates:
            Coordinates               Weight
  0.000000  0.000000  0.000000      1.000000
  0.046708  0.000000  0.000000      6.000000
  0.046708  0.046708  0.000000      6.000000
 -0.046708  0.046708  0.000000      6.000000
  0.046708  0.046708  0.046708      6.000000
 -0.046708  0.046708  0.046708      2.000000
 


--------------------------------------------------------------------------------------------------------




 Dimension of arrays:
   k-points           NKPTS =      6   k-points in BZ     NKDIM =      6   number of bands    NBANDS=    192
   number of dos      NEDOS =    301   number of ions     NIONS =     63
   non local maximal  LDIM  =      4   non local SUM 2l+1 LMDIM =      8
   total plane-waves  NPLWV =  64000
   max r-space proj   IRMAX =      1   max aug-charges    IRDMAX=  17532
   dimension x,y,z NGX =    40 NGY =   40 NGZ =   40
   dimension x,y,z NGXF=    80 NGYF=   80 NGZF=   80
   support grid    NGXF=   160 NGYF=  160 NGZF=  160
   ions per type =              62   1
   NGX,Y,Z   is equivalent  to a cutoff of   9.32,  9.32,  9.32 a.u.
   NGXF,Y,Z  is equivalent  to a cutoff of  18.64, 18.64, 18.64 a.u.

 SYSTEM =  unknown system                          
 POSCAR =  Generated from the PW2PY python module  

 Startparameter for this run:
   NWRITE =      2    write-flag & timer
   PREC   = normal    normal or accurate (medium, high low for compatibility)
   ISTART =      0    job   : 0-new  1-cont  2-samecut
   ICHARG =      2    charge: 1-file 2-atom 10-const
   ISPIN  =      2    spin polarized calculation?
   LNONCOLLINEAR =      F non collinear calculations
   LSORBIT =      F    spin-orbit coupling
   INIWAV =      1    electr: 0-lowe 1-rand  2-diag
   LASPH  =      F    aspherical Exc in radial PAW
   METAGGA=      F    non-selfconsistent MetaGGA calc.

 Electronic Relaxation 1
   ENCUT  =  500.0 eV  36.75 Ry    6.06 a.u.  13.01 13.01 13.01*2*pi/ulx,y,z
   ENINI  =  500.0     initial cutoff
   ENAUG  =  644.9 eV  augmentation charge cutoff
   NELM   =     60;   NELMIN=  2; NELMDL= -5     # of ELM steps 
   EDIFF  = 0.1E-07   stopping-criterion for ELM
   LREAL  =      F    real-space projection
   NLSPLINE    = F    spline interpolate recip. space projectors
   LCOMPAT=      F    compatible to vasp.4.4
   GGA_COMPAT  = T    GGA compatible to vasp.4.4-vasp.4.6
   LMAXPAW     = -100 max onsite density
   LMAXMIX     =    2 max onsite mixed and CHGCAR
   VOSKOWN=      0    Vosko Wilk Nusair interpolation
   ROPT   =    0.00000   0.00000
 Ionic relaxation
   EDIFFG = -.1E-01   stopping-criterion for IOM
   NSW    =    100    number of steps for IOM
   NBLOCK =      1;   KBLOCK =    100    inner block; outer block 
   IBRION =      2    ionic relax: 0-MD 1-quasi-New 2-CG
   NFREE  =      1    steps in history (QN), initial steepest desc. (CG)
   ISIF   =      2    stress and relaxation
   IWAVPR =     11    prediction:  0-non 1-charg 2-wave 3-comb
   ISYM   =      1    0-nonsym 1-usesym 2-fastsym
   LCORR  =      T    Harris-Foulkes like correction to forces

   POTIM  = 0.5000    time-step for ionic-motion
   TEIN   =    0.0    initial temperature
   TEBEG  =    0.0;   TEEND  =   0.0 temperature during run
   SMASS  =  -3.00    Nose mass-parameter (am)
   estimated Nose-frequenzy (Omega)   =  0.10E-29 period in steps =****** mass=  -0.116E-26a.u.
   SCALEE = 1.0000    scale energy and forces
   NPACO  =    256;   APACO  = 16.0  distance and # of slots for P.C.
   PSTRESS=    0.0 pullay stress

  Mass of Ions in am
   POMASS =  12.01 14.00
  Ionic Valenz
   ZVAL   =   4.00  5.00
  Atomic Wigner-Seitz radii
   RWIGS  =  -1.00 -1.00
  virtual crystal weights 
   VCA    =   1.00  1.00
   NELECT =     253.0000    total number of electrons
   NUPDOWN=      -1.0000    fix difference up-down

 DOS related values:
   EMIN   =  10.00;   EMAX   =-10.00  energy-range for DOS
   EFERMI =   0.00
   ISMEAR =    -2;   SIGMA  =   0.00  broadening in eV -4-tet -1-fermi 0-gaus

 Electronic relaxation 2 (details)
   IALGO  =     38    algorithm
   LDIAG  =      T    sub-space diagonalisation (order eigenvalues)
   LSUBROT=      F    optimize rotation matrix (better conditioning)
   TURBO    =      0    0=normal 1=particle mesh
   IRESTART =      0    0=no restart 2=restart with 2 vectors
   NREBOOT  =      0    no. of reboots
   NMIN     =      0    reboot dimension
   EREF     =   0.00    reference energy to select bands
   IMIX   =      4    mixing-type and parameters
     AMIX     =   0.40;   BMIX     =  1.00
     AMIX_MAG =   1.60;   BMIX_MAG =  1.00
     AMIN     =   0.10
     WC   =   100.;   INIMIX=   1;  MIXPRE=   1;  MAXMIX= -45

 Intra band minimization:
   WEIMIN = 0.0010     energy-eigenvalue tresh-hold
   EBREAK =  0.13E-10  absolut break condition
   DEPER  =   0.30     relativ break condition  

   TIME   =   0.40     timestep for ELM

  volume/ion in A,a.u.               =       5.77        38.93
  Fermi-wavevector in a.u.,A,eV,Ry     =   1.450856  2.741721 28.640042  2.104984
  Thomas-Fermi vector in A             =   2.568420
 
 Write flags
   LWAVE        =      T    write WAVECAR
   LDOWNSAMPLE  =      F    k-point downsampling of WAVECAR
   LCHARG       =      T    write CHGCAR
   LVTOT        =      F    write LOCPOT, total local potential
   LVHAR        =      T    write LOCPOT, Hartree potential only
   LELF         =      F    write electronic localiz. function (ELF)
   LORBIT       =      0    0 simple, 1 ext, 2 COOP (PROOUT), +10 PAW based schemes


 Dipole corrections
   LMONO  =      F    monopole corrections only (constant potential shift)
   LDIPOL =      F    correct potential (dipole corrections)
   IDIPOL =      0    1-x, 2-y, 3-z, 4-all directions 
   EPSILON=  1.0000000 bulk dielectric constant

 Exchange correlation treatment:
   GGA     =    --    GGA type
   LEXCH   =     8    internal setting for exchange type
   VOSKOWN=      0    Vosko Wilk Nusair interpolation
   LHFCALC =     F    Hartree Fock is set to
   LHFONE  =     F    Hartree Fock one center treatment
   AEXX    =    0.0000 exact exchange contribution

 Linear response parameters
   LEPSILON=     F    determine dielectric tensor
   LRPA    =     F    only Hartree local field effects (RPA)
   LNABLA  =     F    use nabla operator in PAW spheres
   LVEL    =     F    velocity operator in full k-point grid
   LINTERFAST=   F  fast interpolation
   KINTER  =     0    interpolate to denser k-point grid
   CSHIFT  =0.1000    complex shift for real part using Kramers Kronig
   OMEGAMAX=  -1.0    maximum frequency
   DEG_THRESHOLD= 0.2000000E-02 threshold for treating states as degnerate
   RTIME   =   -0.100 relaxation time in fs
  (WPLASMAI=    0.000 imaginary part of plasma frequency in eV, 0.658/RTIME)
   DFIELD  = 0.0000000 0.0000000 0.0000000 field for delta impulse in time
 
 Orbital magnetization related:
   ORBITALMAG=     F  switch on orbital magnetization
   LCHIMAG   =     F  perturbation theory with respect to B field
   DQ        =  0.001000  dq finite difference perturbation B field
   LLRAUG    =     F  two centre corrections for induced B field



--------------------------------------------------------------------------------------------------------


 conjugate gradient relaxation of ions
 charge density and potential will be updated during run
 spin polarized calculation
 Variant of blocked Davidson
 Davidson routine will perform the subspace rotation
 perform sub-space diagonalisation
    after iterative eigenvector-optimisation
 modified Broyden-mixing scheme, WC =      100.0
 initial mixing is a Kerker type mixing with AMIX =  0.4000 and BMIX =      1.0000
 Hartree-type preconditioning will be used
 using additional bands           65
 WARNING: no broadening specified (might cause bad convergence)
 reciprocal scheme for non local part
 use partial core corrections
 calculate Harris-corrections to forces 
   (improved forces if not selfconsistent)
 use gradient corrections 
 use of overlap-Matrix (Vanderbilt PP)
 partial occupancies read from INCAR or WAVECAR (fixed during run)


--------------------------------------------------------------------------------------------------------


  energy-cutoff  :      500.00
  volume of cell :      363.47
      direct lattice vectors                 reciprocal lattice vectors
     7.136588114  0.000000000  0.000000000     0.140122981  0.000000000  0.000000000
     0.000000000  7.136588114  0.000000000     0.000000000  0.140122981  0.000000000
     0.000000000  0.000000000  7.136588114     0.000000000  0.000000000  0.140122981

  length of vectors
     7.136588114  7.136588114  7.136588114     0.140122981  0.140122981  0.140122981


 
 k-points in units of 2pi/SCALE and weight: K-Spacing Value to Generate K-Mesh: 0.00
   0.00000000  0.00000000  0.00000000       0.037
   0.04670766  0.00000000  0.00000000       0.222
   0.04670766  0.04670766  0.00000000       0.222
  -0.04670766  0.04670766  0.00000000       0.222
   0.04670766  0.04670766  0.04670766       0.222
  -0.04670766  0.04670766  0.04670766       0.074
 
 k-points in reciprocal lattice and weights: K-Spacing Value to Generate K-Mesh: 0.00
   0.00000000  0.00000000  0.00000000       0.037
   0.33333333  0.00000000  0.00000000       0.222
   0.33333333  0.33333333  0.00000000       0.222
  -0.33333333  0.33333333  0.00000000       0.222
   0.33333333  0.33333333  0.33333333       0.222
  -0.33333333  0.33333333  0.33333333       0.074
 
 position of ions in fractional coordinates (direct lattice) 
   0.00020312  0.99979688  0.99979688
   0.62364791  0.62356202  0.12648755
   0.37569882  0.87618200  0.12355451
   0.12639617  0.37567394  0.37567397
   0.87351245  0.62356202  0.37635216
   0.62432606  0.87360381  0.37567397
   0.37643801  0.12648753  0.37635209
   0.12627009  0.62424658  0.62424664
   0.87644556  0.87618200  0.62430122
   0.62364791  0.12648755  0.62356202
   0.36340922  0.36170637  0.63659081
   0.12551850  0.87448154  0.87448154
   0.87476580  0.12523421  0.87450651
   0.62432606  0.37567394  0.87360388
   0.87534375  0.37481390  0.12465630
   0.37575339  0.62424664  0.87372996
   0.36340922  0.63659081  0.36170640
   0.12377574  0.87622425  0.37561495
   0.87351252  0.37635209  0.62356202
   0.63829363  0.63659074  0.63659081
   0.37575339  0.87372983  0.62424664
   0.12381799  0.12355449  0.62430129
   0.87644556  0.62430115  0.87618206
   0.62438508  0.87622432  0.87622432
   0.37569882  0.12355449  0.87618200
   0.12377575  0.37561492  0.87622432
   0.87476580  0.87450644  0.12523425
   0.62518610  0.12465630  0.12465632
   0.37643801  0.37635209  0.12648755
   0.87534375  0.12465626  0.37481397
   0.12381797  0.62430122  0.12355451
   0.12549354  0.12523425  0.12523426
   0.25077119  0.25004517  0.00077017
   0.74965068  0.25034935  0.99920605
   0.50008527  0.49991473  0.99953367
   0.25046008  0.74953989  0.99920981
   0.00079395  0.25034935  0.25034938
   0.74851594  0.49653167  0.25148412
   0.49786567  0.74872807  0.25091059
   0.25077119  0.00077017  0.25004517
   0.00046633  0.49991473  0.49991479
   0.74908944  0.74872807  0.50213440
   0.50008527  0.99953367  0.49991473
   0.25127193  0.25091057  0.50213440
   0.00079019  0.74953989  0.74953989
   0.74995487  0.00077017  0.74922877
   0.99948573  0.50023044  0.00051427
   0.49786567  0.25091056  0.74872814
   0.74965068  0.99920605  0.25034938
   0.50346833  0.25148412  0.25148409
   0.25127190  0.50213433  0.25091062
   0.99922983  0.74922877  0.25004520
   0.74851594  0.25148407  0.49653174
   0.25136023  0.74863973  0.49830187
   0.99948573  0.00051427  0.50023044
   0.74908944  0.50213433  0.74872807
   0.50169827  0.74863973  0.74863973
   0.25046011  0.99920981  0.74953995
   0.99922983  0.25004517  0.74922877
   0.74995487  0.74922877  0.00077017
   0.49976956  0.00051427  0.00051427
   0.25136023  0.49830177  0.74863980
   0.63191693  0.36808307  0.36808307
 
 position of ions in cartesian coordinates  (Angst):
   0.00144962  7.13513849  7.13513849
   4.45071825  4.45010533  0.90268955
   2.68120770  6.25295001  0.88175765
   0.90203743  2.68103015  2.68103039
   6.23389857  4.45010533  2.68587034
   4.45555797  6.23455056  2.68103039
   2.68648303  0.90268937  2.68586986
   0.90113761  4.45499069  4.45499117
   6.25483094  6.25295001  4.45538065
   4.45071825  0.90268955  4.45010533
   2.59350193  2.58134937  4.54308642
   0.89577381  6.24081454  6.24081454
   6.24284324  0.89374500  6.24099276
   4.45555797  2.68103015  6.23455104
   6.24696781  2.67489245  0.88962066
   2.68159719  4.45499117  6.23545086
   2.59350193  4.54308642  2.58134962
   0.88333644  6.25325155  2.68060921
   6.23389905  2.68586986  4.45010533
   4.55523874  4.54308594  4.54308642
   2.68159719  6.23544991  4.45499117
   0.88363798  0.88175753  4.45538113
   6.25483094  4.45538017  6.25295049
   4.45597915  6.25325203  6.25325203
   2.68120770  0.88175753  6.25295001
   0.88333656  2.68060897  6.25325203
   6.24284324  6.24099229  0.89374523
   4.46169567  0.88962066  0.88962079
   2.68648303  2.68586986  0.90268955
   6.24696781  0.88962037  2.67489292
   0.88363786  4.45538065  0.88175765
   0.89559571  0.89374523  0.89374535
   1.78965073  1.78446935  0.00549642
   5.34994814  1.78664021  7.13092200
   3.56890262  3.56768549  7.13326009
   1.78743042  5.34915746  7.13094886
   0.00566612  1.78664021  1.78664045
   5.34184997  3.54354204  1.79473861
   3.55306221  5.34336385  1.79064553
   1.78965073  0.00549642  1.78446935
   0.00332802  3.56768549  3.56768597
   5.34594282  5.34336385  3.58352638
   3.56890262  7.13326009  3.56768549
   1.79322426  1.79064541  3.58352638
   0.00563925  5.34915746  5.34915746
   5.35211900  0.00549642  5.34693715
   7.13291801  3.56993864  0.00367010
   3.55306221  1.79064530  5.34336432
   5.34994814  7.13092200  1.78664045
   3.59304608  1.79473861  1.79473837
   1.79322403  3.58352591  1.79064577
   7.13109169  5.34693715  1.78446959
   5.34184997  1.79473825  3.54354251
   1.79385445  5.34273343  3.55617520
   7.13291801  0.00367010  3.56993864
   5.34594282  3.58352591  5.34336385
   3.58041387  5.34273343  5.34273343
   1.78743066  7.13094886  5.34915793
   7.13109169  1.78446935  5.34693715
   5.35211900  5.34693715  0.00549642
   3.56664947  0.00367010  0.00367010
   1.79385445  3.55617448  5.34273390
   4.50973084  2.62685727  2.62685727
 


--------------------------------------------------------------------------------------------------------


 k-point  1 :   0.0000 0.0000 0.0000  plane waves:    9171
 k-point  2 :   0.3333 0.0000 0.0000  plane waves:    9182
 k-point  3 :   0.3333 0.3333 0.0000  plane waves:    9212
 k-point  4 :  -0.3333 0.3333 0.0000  plane waves:    9212
 k-point  5 :   0.3333 0.3333 0.3333  plane waves:    9255
 k-point  6 :  -0.3333 0.3333 0.3333  plane waves:    9255

 maximum and minimum number of plane-waves per node :      4628     4580

 maximum number of plane-waves:      9255
 maximum index in each direction: 
   IXMAX=   13   IYMAX=   13   IZMAX=   13
   IXMIN=  -13   IYMIN=  -13   IZMIN=  -13


 parallel 3D FFT for wavefunctions:
    minimum data exchange during FFTs selected (reduces bandwidth)
 parallel 3D FFT for charge:
    minimum data exchange during FFTs selected (reduces bandwidth)


 total amount of memory used by VASP MPI-rank0    46326. kBytes
=======================================================================

   base      :      30000. kBytes
   nonl-proj :       8297. kBytes
   fftplans  :       1888. kBytes
   grid      :       3107. kBytes
   one-center:        196. kBytes
   wavefun   :       2838. kBytes
 
     INWAV:  cpu time    0.0000: real time    0.0000
 Broyden mixing: mesh for mixing (old mesh)
   NGX = 27   NGY = 27   NGZ = 27
  (NGX  = 80   NGY  = 80   NGZ  = 80)
  gives a total of  19683 points

 initial charge density was supplied:
 charge density of overlapping atoms calculated
 number of electron     253.0000000 magnetization      63.0000000
 keeping initial charge density in first step


--------------------------------------------------------------------------------------------------------


 Maximum index for augmentation-charges          777 (set IRDMAX)


--------------------------------------------------------------------------------------------------------


 First call to EWALD:  gamma=   0.248
 Maximum number of real-space cells 3x 3x 3
 Maximum number of reciprocal cells 3x 3x 3

    FEWALD:  cpu time    0.0019: real time    0.0023


--------------------------------------- Iteration      1(   1)  ---------------------------------------


    POTLOK:  cpu time    0.1498: real time    0.1611
    SETDIJ:  cpu time    0.0098: real time    0.0105
     EDDAV:  cpu time    0.9199: real time    0.9404
       DOS:  cpu time    0.0028: real time    0.0036
    --------------------------------------------
      LOOP:  cpu time    1.0823: real time    1.1156

 eigenvalue-minimisations  :  4608
 total energy-change (2. order) : 0.5956172E+03  (-0.1319911E+05)
 number of electron     253.0000000 magnetization      63.0000000
 augmentation part      253.0000000 magnetization      63.0000000

 Free energy of the ion-electron system (eV)
  ---------------------------------------------------
  alpha Z        PSCENC =       901.27874273
  Ewald energy   TEWEN  =    -10883.63242051
  -Hartree energ DENC   =      -669.46542351
  -exchange      EXHF   =         0.00000000
  -V(xc)+E(xc)   XCENC  =       879.14063835
  PAW double counting   =      6925.21173261    -6961.15079433
  entropy T*S    EENTRO =         0.00000000
  eigenvalues    EBANDS =      1016.49773722
  atomic energy  EATOM  =      9387.73699318
  Solvation  Ediel_sol  =         0.00000000
  ---------------------------------------------------
  free energy    TOTEN  =       595.61720574 eV

  energy without entropy =      595.61720574  energy(sigma->0) =      595.61720574


--------------------------------------------------------------------------------------------------------




--------------------------------------- Iteration      1(   2)  ---------------------------------------


     EDDAV:  cpu time    1.4251: real time    1.4366
       DOS:  cpu time    0.0008: real time    0.0008
    --------------------------------------------
      LOOP:  cpu time    1.4259: real time    1.4374

 eigenvalue-minimisations  :  6720
 total energy-change (2. order) :-0.1108297E+04  (-0.1051753E+04)
 number of electron     253.0000000 magnetization      63.0000000
 augmentation part      253.0000000 magnetization      63.0000000

 Free energy of the ion-electron system (eV)
  ---------------------------------------------------
  alpha Z        PSCENC =       901.27874273
  Ewald energy   TEWEN  =    -10883.63242051
  -Hartree energ DENC   =      -669.46542351
  -exchange      EXHF   =         0.00000000
  -V(xc)+E(xc)   XCENC  =       879.14063835
  PAW double counting   =      6925.21173261    -6961.15079433
  entropy T*S    EENTRO =         0.00000000
  eigenvalues    EBANDS =       -91.79901637
  atomic energy  EATOM  =      9387.73699318
  Solvation  Ediel_sol  =         0.00000000
  ---------------------------------------------------
  free energy    TOTEN  =      -512.67954785 eV

  energy without entropy =     -512.67954785  energy(sigma->0) =     -512.67954785


--------------------------------------------------------------------------------------------------------




--------------------------------------- Iteration      1(   3)  ---------------------------------------


     EDDAV:  cpu time    1.3153: real time    1.3248
       DOS:  cpu time    0.0004: real time    0.0004
    --------------------------------------------
      LOOP:  cpu time    1.3157: real time    1.3252

 eigenvalue-minimisations  :  6144
 total energy-change (2. order) :-0.3625152E+02  (-0.3600381E+02)
 number of electron     253.0000000 magnetization      63.0000000
 augmentation part      253.0000000 magnetization      63.0000000

 Free energy of the ion-electron system (eV)
  ---------------------------------------------------
  alpha Z        PSCENC =       901.27874273
  Ewald energy   TEWEN  =    -10883.63242051
  -Hartree energ DENC   =      -669.46542351
  -exchange      EXHF   =         0.00000000
  -V(xc)+E(xc)   XCENC  =       879.14063835
  PAW double counting   =      6925.21173261    -6961.15079433
  entropy T*S    EENTRO =         0.00000000
  eigenvalues    EBANDS =      -128.05053832
  atomic energy  EATOM  =      9387.73699318
  Solvation  Ediel_sol  =         0.00000000
  ---------------------------------------------------
  free energy    TOTEN  =      -548.93106980 eV

  energy without entropy =     -548.93106980  energy(sigma->0) =     -548.93106980


--------------------------------------------------------------------------------------------------------




--------------------------------------- Iteration      1(   4)  ---------------------------------------


     EDDAV:  cpu time    1.2093: real time    1.2187
       DOS:  cpu time    0.0004: real time    0.0004
    --------------------------------------------
      LOOP:  cpu time    1.2097: real time    1.2191

 eigenvalue-minimisations  :  5888
 total energy-change (2. order) :-0.3581844E+00  (-0.3580056E+00)
 number of electron     253.0000000 magnetization      63.0000000
 augmentation part      253.0000000 magnetization      63.0000000

 Free energy of the ion-electron system (eV)
  ---------------------------------------------------
  alpha Z        PSCENC =       901.27874273
  Ewald energy   TEWEN  =    -10883.63242051
  -Hartree energ DENC   =      -669.46542351
  -exchange      EXHF   =         0.00000000
  -V(xc)+E(xc)   XCENC  =       879.14063835
  PAW double counting   =      6925.21173261    -6961.15079433
  entropy T*S    EENTRO =         0.00000000
  eigenvalues    EBANDS =      -128.40872271
  atomic energy  EATOM  =      9387.73699318
  Solvation  Ediel_sol  =         0.00000000
  ---------------------------------------------------
  free energy    TOTEN  =      -549.28925419 eV

  energy without entropy =     -549.28925419  energy(sigma->0) =     -549.28925419


--------------------------------------------------------------------------------------------------------




--------------------------------------- Iteration      1(   5)  ---------------------------------------


     EDDAV:  cpu time    1.2816: real time    1.2936
       DOS:  cpu time    0.0004: real time    0.0004
    CHARGE:  cpu time    0.1102: real time    0.1132
    MIXING:  cpu time    0.0037: real time    0.0049
    --------------------------------------------
      LOOP:  cpu time    1.3959: real time    1.4120

 eigenvalue-minimisations  :  6208
 total energy-change (2. order) :-0.7413537E-02  (-0.7411229E-02)
 number of electron     253.9999995 magnetization      20.3816716
 augmentation part        6.4444908 magnetization      18.5006763

 Broyden mixing:
  rms(total) = 0.48822E+01    rms(broyden)= 0.48816E+01
  rms(prec ) = 0.57163E+01
  weight for this iteration     100.00

 Free energy of the ion-electron system (eV)
  ---------------------------------------------------
  alpha Z        PSCENC =       901.27874273
  Ewald energy   TEWEN  =    -10883.63242051
  -Hartree energ DENC   =      -669.46542351
  -exchange      EXHF   =         0.00000000
  -V(xc)+E(xc)   XCENC  =       879.14063835
  PAW double counting   =      6925.21173261    -6961.15079433
  entropy T*S    EENTRO =         0.00000000
  eigenvalues    EBANDS =      -128.41613624
  atomic energy  EATOM  =      9387.73699318
  Solvation  Ediel_sol  =         0.00000000
  ---------------------------------------------------
  free energy    TOTEN  =      -549.29666772 eV

  energy without entropy =     -549.29666772  energy(sigma->0) =     -549.29666772


--------------------------------------------------------------------------------------------------------




--------------------------------------- Iteration      1(   6)  ---------------------------------------


    POTLOK:  cpu time    0.0199: real time    0.0248
    SETDIJ:  cpu time    0.0152: real time    0.0153
     EDDAV:  cpu time    1.2539: real time    1.2589
       DOS:  cpu time    0.0004: real time    0.0004
    CHARGE:  cpu time    0.1045: real time    0.1048
    MIXING:  cpu time    0.0036: real time    0.0042
    --------------------------------------------
      LOOP:  cpu time    1.3975: real time    1.4083

 eigenvalue-minimisations  :  6080
 total energy-change (2. order) :-0.2792561E+01  (-0.2562311E+01)
 number of electron     253.9999995 magnetization       3.5057174
 augmentation part        6.2889775 magnetization       1.5416163

 Broyden mixing:
  rms(total) = 0.21982E+01    rms(broyden)= 0.21982E+01
  rms(prec ) = 0.26999E+01
  weight for this iteration     100.00

 eigenvalues of (default mixing * dielectric matrix)
  average eigenvalue GAMMA=   1.0064
  1.0064

 Free energy of the ion-electron system (eV)
  ---------------------------------------------------
  alpha Z        PSCENC =       901.27874273
  Ewald energy   TEWEN  =    -10883.63242051
  -Hartree energ DENC   =      -790.44087436
  -exchange      EXHF   =         0.00000000
  -V(xc)+E(xc)   XCENC  =       886.08373092
  PAW double counting   =     11959.74149267   -12000.00731648
  entropy T*S    EENTRO =         0.00000000
  eigenvalues    EBANDS =       -12.84957719
  atomic energy  EATOM  =      9387.73699318
  Solvation  Ediel_sol  =         0.00000000
  ---------------------------------------------------
  free energy    TOTEN  =      -552.08922903 eV

  energy without entropy =     -552.08922903  energy(sigma->0) =     -552.08922903


--------------------------------------------------------------------------------------------------------




--------------------------------------- Iteration      1(   7)  ---------------------------------------


    POTLOK:  cpu time    0.0188: real time    0.0219
    SETDIJ:  cpu time    0.0131: real time    0.0131
     EDDAV:  cpu time    1.0954: real time    1.0997
       DOS:  cpu time    0.0004: real time    0.0004
    CHARGE:  cpu time    0.1051: real time    0.1053
    MIXING:  cpu time    0.0019: real time    0.0019
    --------------------------------------------
      LOOP:  cpu time    1.2345: real time    1.2422

 eigenvalue-minimisations  :  5568
 total energy-change (2. order) :-0.1608137E+01  (-0.1870621E+01)
 number of electron     253.9999995 magnetization      -0.4222668
 augmentation part        6.1702511 magnetization      -2.2916595

 Broyden mixing:
  rms(total) = 0.10229E+01    rms(broyden)= 0.10229E+01
  rms(prec ) = 0.11904E+01
  weight for this iteration     100.00

 eigenvalues of (default mixing * dielectric matrix)
  average eigenvalue GAMMA=   1.2156
  0.8019  1.6293

 Free energy of the ion-electron system (eV)
  ---------------------------------------------------
  alpha Z        PSCENC =       901.27874273
  Ewald energy   TEWEN  =    -10883.63242051
  -Hartree energ DENC   =      -885.69516670
  -exchange      EXHF   =         0.00000000
  -V(xc)+E(xc)   XCENC  =       892.24505682
  PAW double counting   =     17331.56836776   -17374.17030056
  entropy T*S    EENTRO =         0.00000000
  eigenvalues    EBANDS =        76.97136150
  atomic energy  EATOM  =      9387.73699318
  Solvation  Ediel_sol  =         0.00000000
  ---------------------------------------------------
  free energy    TOTEN  =      -553.69736579 eV

  energy without entropy =     -553.69736579  energy(sigma->0) =     -553.69736579


--------------------------------------------------------------------------------------------------------




--------------------------------------- Iteration      1(   8)  ---------------------------------------


    POTLOK:  cpu time    0.0148: real time    0.0196
    SETDIJ:  cpu time    0.0130: real time    0.0130
     EDDAV:  cpu time    1.2740: real time    1.2789
       DOS:  cpu time    0.0003: real time    0.0003
    CHARGE:  cpu time    0.1047: real time    0.1049
    MIXING:  cpu time    0.0019: real time    0.0019
    --------------------------------------------
      LOOP:  cpu time    1.4087: real time    1.4188

 eigenvalue-minimisations  :  6144
 total energy-change (2. order) : 0.2823316E+00  (-0.1835870E+00)
 number of electron     253.9999995 magnetization       1.2024728
 augmentation part        6.1177245 magnetization      -0.6577799

 Broyden mixing:
  rms(total) = 0.48795E+00    rms(broyden)= 0.48793E+00
  rms(prec ) = 0.51750E+00
  weight for this iteration     100.00

 eigenvalues of (default mixing * dielectric matrix)
  average eigenvalue GAMMA=   1.2044
  1.9005  0.9759  0.7370

 Free energy of the ion-electron system (eV)
  ---------------------------------------------------
  alpha Z        PSCENC =       901.27874273
  Ewald energy   TEWEN  =    -10883.63242051
  -Hartree energ DENC   =      -934.54045435
  -exchange      EXHF   =         0.00000000
  -V(xc)+E(xc)   XCENC  =       896.65307277
  PAW double counting   =     21370.05434825   -21413.55805869
  entropy T*S    EENTRO =         0.00000000
  eigenvalues    EBANDS =       122.59274248
  atomic energy  EATOM  =      9387.73699318
  Solvation  Ediel_sol  =         0.00000000
  ---------------------------------------------------
  free energy    TOTEN  =      -553.41503414 eV

  energy without entropy =     -553.41503414  energy(sigma->0) =     -553.41503414


--------------------------------------------------------------------------------------------------------




--------------------------------------- Iteration      1(   9)  ---------------------------------------


    POTLOK:  cpu time    0.0155: real time    0.0207
    SETDIJ:  cpu time    0.0136: real time    0.0137
     EDDAV:  cpu time    1.2108: real time    1.2155
       DOS:  cpu time    0.0003: real time    0.0003
    CHARGE:  cpu time    0.1049: real time    0.1052
    MIXING:  cpu time    0.0018: real time    0.0018
    --------------------------------------------
      LOOP:  cpu time    1.3471: real time    1.3571

 eigenvalue-minimisations  :  5952
 total energy-change (2. order) :-0.8507775E-01  (-0.2045378E-01)
 number of electron     253.9999995 magnetization       2.1338027
 augmentation part        6.1095094 magnetization       0.2533443

 Broyden mixing:
  rms(total) = 0.26023E+00    rms(broyden)= 0.26023E+00
  rms(prec ) = 0.26701E+00
  weight for this iteration     100.00

 eigenvalues of (default mixing * dielectric matrix)
  average eigenvalue GAMMA=   1.3173
  2.4709  1.4036  0.8208  0.5738

 Free energy of the ion-electron system (eV)
  ---------------------------------------------------
  alpha Z        PSCENC =       901.27874273
  Ewald energy   TEWEN  =    -10883.63242051
  -Hartree energ DENC   =      -946.11437820
  -exchange      EXHF   =         0.00000000
  -V(xc)+E(xc)   XCENC  =       897.79376008
  PAW double counting   =     23302.09702329   -23345.51636592
  entropy T*S    EENTRO =         0.00000000
  eigenvalues    EBANDS =       132.85653347
  atomic energy  EATOM  =      9387.73699318
  Solvation  Ediel_sol  =         0.00000000
  ---------------------------------------------------
  free energy    TOTEN  =      -553.50011189 eV

  energy without entropy =     -553.50011189  energy(sigma->0) =     -553.50011189


--------------------------------------------------------------------------------------------------------




--------------------------------------- Iteration      1(  10)  ---------------------------------------


    POTLOK:  cpu time    0.0149: real time    0.0230
    SETDIJ:  cpu time    0.0169: real time    0.0169
     EDDAV:  cpu time    1.2611: real time    1.2661
       DOS:  cpu time    0.0004: real time    0.0004
    CHARGE:  cpu time    0.1046: real time    0.1049
    MIXING:  cpu time    0.0033: real time    0.0034
    --------------------------------------------
      LOOP:  cpu time    1.4013: real time    1.4147

 eigenvalue-minimisations  :  6144
 total energy-change (2. order) :-0.6279009E-02  (-0.2020154E-02)
 number of electron     253.9999995 magnetization       2.1166142
 augmentation part        6.1089431 magnetization       0.2377440

 Broyden mixing:
  rms(total) = 0.57178E-01    rms(broyden)= 0.57176E-01
  rms(prec ) = 0.67723E-01
  weight for this iteration     100.00

 eigenvalues of (default mixing * dielectric matrix)
  average eigenvalue GAMMA=   1.2782
  2.5818  1.4875  0.9414  0.7887  0.5914

 Free energy of the ion-electron system (eV)
  ---------------------------------------------------
  alpha Z        PSCENC =       901.27874273
  Ewald energy   TEWEN  =    -10883.63242051
  -Hartree energ DENC   =      -949.11471588
  -exchange      EXHF   =         0.00000000
  -V(xc)+E(xc)   XCENC  =       898.12906314
  PAW double counting   =     24192.98461013   -24236.26020090
  entropy T*S    EENTRO =         0.00000000
  eigenvalues    EBANDS =       135.37153720
  atomic energy  EATOM  =      9387.73699318
  Solvation  Ediel_sol  =         0.00000000
  ---------------------------------------------------
  free energy    TOTEN  =      -553.50639090 eV

  energy without entropy =     -553.50639090  energy(sigma->0) =     -553.50639090


--------------------------------------------------------------------------------------------------------




--------------------------------------- Iteration      1(  11)  ---------------------------------------


    POTLOK:  cpu time    0.0163: real time    0.0234
    SETDIJ:  cpu time    0.0117: real time    0.0118
     EDDAV:  cpu time    1.2811: real time    1.2860
       DOS:  cpu time    0.0004: real time    0.0004
    CHARGE:  cpu time    0.1040: real time    0.1043
    MIXING:  cpu time    0.0033: real time    0.0034
    --------------------------------------------
      LOOP:  cpu time    1.4169: real time    1.4292

 eigenvalue-minimisations  :  6144
 total energy-change (2. order) :-0.1712599E-03  (-0.8412346E-03)
 number of electron     253.9999995 magnetization       2.0363558
 augmentation part        6.1093954 magnetization       0.1588657

 Broyden mixing:
  rms(total) = 0.22799E-01    rms(broyden)= 0.22798E-01
  rms(prec ) = 0.26666E-01
  weight for this iteration     100.00

 eigenvalues of (default mixing * dielectric matrix)
  average eigenvalue GAMMA=   1.2687
  2.5495  1.6183  1.2480  0.8553  0.7408  0.6003

 Free energy of the ion-electron system (eV)
  ---------------------------------------------------
  alpha Z        PSCENC =       901.27874273
  Ewald energy   TEWEN  =    -10883.63242051
  -Hartree energ DENC   =      -948.30068602
  -exchange      EXHF   =         0.00000000
  -V(xc)+E(xc)   XCENC  =       898.06862473
  PAW double counting   =     24306.40186299   -24349.57690981
  entropy T*S    EENTRO =         0.00000000
  eigenvalues    EBANDS =       134.51723055
  atomic energy  EATOM  =      9387.73699318
  Solvation  Ediel_sol  =         0.00000000
  ---------------------------------------------------
  free energy    TOTEN  =      -553.50656216 eV

  energy without entropy =     -553.50656216  energy(sigma->0) =     -553.50656216


--------------------------------------------------------------------------------------------------------




--------------------------------------- Iteration      1(  12)  ---------------------------------------


    POTLOK:  cpu time    0.0207: real time    0.0266
    SETDIJ:  cpu time    0.0095: real time    0.0095
     EDDAV:  cpu time    1.2914: real time    1.2964
       DOS:  cpu time    0.0003: real time    0.0003
    CHARGE:  cpu time    0.1051: real time    0.1053
    MIXING:  cpu time    0.0042: real time    0.0044
    --------------------------------------------
      LOOP:  cpu time    1.4312: real time    1.4426

 eigenvalue-minimisations  :  6144
 total energy-change (2. order) :-0.5549169E-03  (-0.2106944E-03)
 number of electron     253.9999995 magnetization       2.0096692
 augmentation part        6.1105186 magnetization       0.1320417

 Broyden mixing:
  rms(total) = 0.76691E-02    rms(broyden)= 0.76677E-02
  rms(prec ) = 0.97584E-02
  weight for this iteration     100.00

 eigenvalues of (default mixing * dielectric matrix)
  average eigenvalue GAMMA=   1.2558
  2.4975  1.8447  1.3719  0.9420  0.8173  0.6014  0.7161

 Free energy of the ion-electron system (eV)
  ---------------------------------------------------
  alpha Z        PSCENC =       901.27874273
  Ewald energy   TEWEN  =    -10883.63242051
  -Hartree energ DENC   =      -947.57794321
  -exchange      EXHF   =         0.00000000
  -V(xc)+E(xc)   XCENC  =       898.00939411
  PAW double counting   =     24336.76174065   -24379.87515670
  entropy T*S    EENTRO =         0.00000000
  eigenvalues    EBANDS =       133.79153267
  atomic energy  EATOM  =      9387.73699318
  Solvation  Ediel_sol  =         0.00000000
  ---------------------------------------------------
  free energy    TOTEN  =      -553.50711708 eV

  energy without entropy =     -553.50711708  energy(sigma->0) =     -553.50711708


--------------------------------------------------------------------------------------------------------




--------------------------------------- Iteration      1(  13)  ---------------------------------------


    POTLOK:  cpu time    0.0220: real time    0.0228
    SETDIJ:  cpu time    0.0149: real time    0.0149
     EDDAV:  cpu time    1.2964: real time    1.3015
       DOS:  cpu time    0.0004: real time    0.0004
    CHARGE:  cpu time    0.1039: real time    0.1041
    MIXING:  cpu time    0.0035: real time    0.0035
    --------------------------------------------
      LOOP:  cpu time    1.4410: real time    1.4472

 eigenvalue-minimisations  :  6208
 total energy-change (2. order) :-0.1082318E-03  (-0.3010824E-04)
 number of electron     253.9999995 magnetization       1.9975593
 augmentation part        6.1110029 magnetization       0.1204368

 Broyden mixing:
  rms(total) = 0.41576E-02    rms(broyden)= 0.41573E-02
  rms(prec ) = 0.47460E-02
  weight for this iteration     100.00

 eigenvalues of (default mixing * dielectric matrix)
  average eigenvalue GAMMA=   1.2300
  2.4187  2.0708  1.4385  0.8847  0.8847  0.8568  0.6120  0.6736

 Free energy of the ion-electron system (eV)
  ---------------------------------------------------
  alpha Z        PSCENC =       901.27874273
  Ewald energy   TEWEN  =    -10883.63242051
  -Hartree energ DENC   =      -947.47410140
  -exchange      EXHF   =         0.00000000
  -V(xc)+E(xc)   XCENC  =       898.00184332
  PAW double counting   =     24333.98656430   -24377.08883594
  entropy T*S    EENTRO =         0.00000000
  eigenvalues    EBANDS =       133.68398901
  atomic energy  EATOM  =      9387.73699318
  Solvation  Ediel_sol  =         0.00000000
  ---------------------------------------------------
  free energy    TOTEN  =      -553.50722531 eV

  energy without entropy =     -553.50722531  energy(sigma->0) =     -553.50722531


--------------------------------------------------------------------------------------------------------




--------------------------------------- Iteration      1(  14)  ---------------------------------------


    POTLOK:  cpu time    0.0171: real time    0.0205
    SETDIJ:  cpu time    0.0137: real time    0.0137
     EDDAV:  cpu time    1.2762: real time    1.2811
       DOS:  cpu time    0.0004: real time    0.0004
    CHARGE:  cpu time    0.1039: real time    0.1042
    MIXING:  cpu time    0.0034: real time    0.0034
    --------------------------------------------
      LOOP:  cpu time    1.4147: real time    1.4232

 eigenvalue-minimisations  :  6144
 total energy-change (2. order) :-0.4865036E-04  (-0.5465398E-05)
 number of electron     253.9999995 magnetization       1.9974892
 augmentation part        6.1111142 magnetization       0.1201839

 Broyden mixing:
  rms(total) = 0.21016E-02    rms(broyden)= 0.21015E-02
  rms(prec ) = 0.25280E-02
  weight for this iteration     100.00

 eigenvalues of (default mixing * dielectric matrix)
  average eigenvalue GAMMA=   1.2152
  2.3072  2.2746  1.4782  1.0700  0.9623  0.8676  0.7594  0.6087  0.6087

 Free energy of the ion-electron system (eV)
  ---------------------------------------------------
  alpha Z        PSCENC =       901.27874273
  Ewald energy   TEWEN  =    -10883.63242051
  -Hartree energ DENC   =      -947.46504264
  -exchange      EXHF   =         0.00000000
  -V(xc)+E(xc)   XCENC  =       898.00181835
  PAW double counting   =     24329.66095590   -24372.75824926
  entropy T*S    EENTRO =         0.00000000
  eigenvalues    EBANDS =       133.66992828
  atomic energy  EATOM  =      9387.73699318
  Solvation  Ediel_sol  =         0.00000000
  ---------------------------------------------------
  free energy    TOTEN  =      -553.50727396 eV

  energy without entropy =     -553.50727396  energy(sigma->0) =     -553.50727396


--------------------------------------------------------------------------------------------------------




--------------------------------------- Iteration      1(  15)  ---------------------------------------


    POTLOK:  cpu time    0.0160: real time    0.0222
    SETDIJ:  cpu time    0.0127: real time    0.0127
     EDDAV:  cpu time    1.3579: real time    1.3632
       DOS:  cpu time    0.0006: real time    0.0006
    CHARGE:  cpu time    0.1039: real time    0.1041
    MIXING:  cpu time    0.0034: real time    0.0034
    --------------------------------------------
      LOOP:  cpu time    1.4945: real time    1.5062

 eigenvalue-minimisations  :  6336
 total energy-change (2. order) :-0.1430171E-04  (-0.8519302E-06)
 number of electron     253.9999995 magnetization       1.9990220
 augmentation part        6.1111046 magnetization       0.1217427

 Broyden mixing:
  rms(total) = 0.11332E-02    rms(broyden)= 0.11332E-02
  rms(prec ) = 0.13326E-02
  weight for this iteration     100.00

 eigenvalues of (default mixing * dielectric matrix)
  average eigenvalue GAMMA=   1.2712
  2.4565  2.4565  1.7655  1.4046  0.9287  0.9287  0.8481  0.7182  0.6027  0.6027

 Free energy of the ion-electron system (eV)
  ---------------------------------------------------
  alpha Z        PSCENC =       901.27874273
  Ewald energy   TEWEN  =    -10883.63242051
  -Hartree energ DENC   =      -947.50122999
  -exchange      EXHF   =         0.00000000
  -V(xc)+E(xc)   XCENC  =       898.00538325
  PAW double counting   =     24327.23871974   -24370.33452923
  entropy T*S    EENTRO =         0.00000000
  eigenvalues    EBANDS =       133.70105256
  atomic energy  EATOM  =      9387.73699318
  Solvation  Ediel_sol  =         0.00000000
  ---------------------------------------------------
  free energy    TOTEN  =      -553.50728826 eV

  energy without entropy =     -553.50728826  energy(sigma->0) =     -553.50728826


--------------------------------------------------------------------------------------------------------




--------------------------------------- Iteration      1(  16)  ---------------------------------------


    POTLOK:  cpu time    0.0155: real time    0.0162
    SETDIJ:  cpu time    0.0094: real time    0.0094
     EDDAV:  cpu time    1.3077: real time    1.3127
       DOS:  cpu time    0.0006: real time    0.0006
    CHARGE:  cpu time    0.1039: real time    0.1042
    MIXING:  cpu time    0.0038: real time    0.0039
    --------------------------------------------
      LOOP:  cpu time    1.4409: real time    1.4469

 eigenvalue-minimisations  :  6144
 total energy-change (2. order) :-0.4964122E-05  (-0.4947186E-06)
 number of electron     253.9999995 magnetization       1.9998473
 augmentation part        6.1111013 magnetization       0.1225864

 Broyden mixing:
  rms(total) = 0.28542E-03    rms(broyden)= 0.28511E-03
  rms(prec ) = 0.35014E-03
  weight for this iteration     100.00

 eigenvalues of (default mixing * dielectric matrix)
  average eigenvalue GAMMA=   1.2861
  2.7431  2.5103  1.9620  1.4261  0.9502  0.9040  0.9040  0.8054  0.7066  0.6178
  0.6178

 Free energy of the ion-electron system (eV)
  ---------------------------------------------------
  alpha Z        PSCENC =       901.27874273
  Ewald energy   TEWEN  =    -10883.63242051
  -Hartree energ DENC   =      -947.54297204
  -exchange      EXHF   =         0.00000000
  -V(xc)+E(xc)   XCENC  =       898.00941023
  PAW double counting   =     24324.73797379   -24367.83323986
  entropy T*S    EENTRO =         0.00000000
  eigenvalues    EBANDS =       133.73821925
  atomic energy  EATOM  =      9387.73699318
  Solvation  Ediel_sol  =         0.00000000
  ---------------------------------------------------
  free energy    TOTEN  =      -553.50729323 eV

  energy without entropy =     -553.50729323  energy(sigma->0) =     -553.50729323


--------------------------------------------------------------------------------------------------------




--------------------------------------- Iteration      1(  17)  ---------------------------------------


    POTLOK:  cpu time    0.0133: real time    0.0140
    SETDIJ:  cpu time    0.0173: real time    0.0174
     EDDAV:  cpu time    1.3746: real time    1.3799
       DOS:  cpu time    0.0006: real time    0.0006
    CHARGE:  cpu time    0.1038: real time    0.1041
    MIXING:  cpu time    0.0035: real time    0.0035
    --------------------------------------------
      LOOP:  cpu time    1.5132: real time    1.5195

 eigenvalue-minimisations  :  6528
 total energy-change (2. order) :-0.2289089E-06  (-0.5167849E-07)
 number of electron     253.9999995 magnetization       1.9999853
 augmentation part        6.1110968 magnetization       0.1227009

 Broyden mixing:
  rms(total) = 0.92879E-04    rms(broyden)= 0.92002E-04
  rms(prec ) = 0.10143E-03
  weight for this iteration     100.00

 eigenvalues of (default mixing * dielectric matrix)
  average eigenvalue GAMMA=   1.2689
  2.8131  2.4862  2.0019  1.4292  1.1295  0.9191  0.9191  0.8539  0.7731  0.6754
  0.6135  0.6135

 Free energy of the ion-electron system (eV)
  ---------------------------------------------------
  alpha Z        PSCENC =       901.27874273
  Ewald energy   TEWEN  =    -10883.63242051
  -Hartree energ DENC   =      -947.55702453
  -exchange      EXHF   =         0.00000000
  -V(xc)+E(xc)   XCENC  =       898.01073938
  PAW double counting   =     24323.91862647   -24367.01403614
  entropy T*S    EENTRO =         0.00000000
  eigenvalues    EBANDS =       133.75108596
  atomic energy  EATOM  =      9387.73699318
  Solvation  Ediel_sol  =         0.00000000
  ---------------------------------------------------
  free energy    TOTEN  =      -553.50729346 eV

  energy without entropy =     -553.50729346  energy(sigma->0) =     -553.50729346


--------------------------------------------------------------------------------------------------------




--------------------------------------- Iteration      1(  18)  ---------------------------------------


    POTLOK:  cpu time    0.0213: real time    0.0221
    SETDIJ:  cpu time    0.0113: real time    0.0114
     EDDAV:  cpu time    1.2755: real time    1.2804
       DOS:  cpu time    0.0005: real time    0.0006
    --------------------------------------------
      LOOP:  cpu time    1.3086: real time    1.3145

 eigenvalue-minimisations  :  6144
 total energy-change (2. order) :-0.4140020E-08  (-0.3996076E-08)
 number of electron     253.9999995 magnetization       1.9999853
 augmentation part        6.1110968 magnetization       0.1227009

 Free energy of the ion-electron system (eV)
  ---------------------------------------------------
  alpha Z        PSCENC =       901.27874273
  Ewald energy   TEWEN  =    -10883.63242051
  -Hartree energ DENC   =      -947.55870438
  -exchange      EXHF   =         0.00000000
  -V(xc)+E(xc)   XCENC  =       898.01089197
  PAW double counting   =     24323.88849503   -24366.98392833
  entropy T*S    EENTRO =         0.00000000
  eigenvalues    EBANDS =       133.75263684
  atomic energy  EATOM  =      9387.73699318
  Solvation  Ediel_sol  =         0.00000000
  ---------------------------------------------------
  free energy    TOTEN  =      -553.50729346 eV

  energy without entropy =     -553.50729346  energy(sigma->0) =     -553.50729346


--------------------------------------------------------------------------------------------------------




 average (electrostatic) potential at core
  the test charge radii are     0.6991  0.7089
  (the norm of the test charge is              1.0000)
       1 -45.9386       2 -45.8167       3 -45.6705       4 -45.6668       5 -45.8167
       6 -45.6668       7 -45.8167       8 -45.6154       9 -45.6705      10 -45.8167
      11 -43.8724      12 -45.8292      13 -45.9031      14 -45.6668      15 -45.8883
      16 -45.6154      17 -43.8723      18 -45.7192      19 -45.8168      20 -43.8724
      21 -45.6153      22 -45.6705      23 -45.6705      24 -45.7192      25 -45.6705
      26 -45.7192      27 -45.9031      28 -45.8883      29 -45.8167      30 -45.8883
      31 -45.6705      32 -45.9031      33 -45.8522      34 -45.8903      35 -45.7589
      36 -45.7513      37 -45.8903      38 -46.5395      39 -45.4755      40 -45.8522
      41 -45.7589      42 -45.4755      43 -45.7589      44 -45.4755      45 -45.7513
      46 -45.8522      47 -45.7052      48 -45.4755      49 -45.8903      50 -46.5395
      51 -45.4755      52 -45.8522      53 -46.5395      54 -45.4598      55 -45.7052
      56 -45.4755      57 -45.4598      58 -45.7513      59 -45.8522      60 -45.8522
      61 -45.7052      62 -45.4598      63 -60.5403
 
 
 
 E-fermi :   0.0000     XC(G=0): -13.1699     alpha+bet :-17.3348


 spin component 1

 k-point     1 :       0.0000    0.0000    0.0000
  band No.  band energies     occupation 
      1     -12.1830      1.00000
      2     -10.6953      1.00000
      3      -9.8619      1.00000
      4      -9.8619      1.00000
      5      -9.7385      1.00000
      6      -9.7385      1.00000
      7      -9.4725      1.00000
      8      -8.5732      1.00000
      9      -7.7161      1.00000
     10      -7.7161      1.00000
     11      -7.6978      1.00000
     12      -7.6978      1.00000
     13      -7.6016      1.00000
     14      -7.6016      1.00000
     15      -7.5845      1.00000
     16      -7.5325      1.00000
     17      -7.4345      1.00000
     18      -7.4345      1.00000
     19      -6.9461      1.00000
     20      -6.5457      1.00000
     21      -6.2494      1.00000
     22      -6.2494      1.00000
     23      -5.7012      1.00000
     24      -3.9565      1.00000
     25      -3.9565      1.00000
     26      -3.9148      1.00000
     27      -3.8795      1.00000
     28      -3.7458      1.00000
     29      -3.4173      1.00000
     30      -3.4173      1.00000
     31      -3.3011      1.00000
     32      -3.3011      1.00000
     33      -3.2159      1.00000
     34      -2.9839      1.00000
     35      -2.7635      1.00000
     36      -2.7635      1.00000
     37      -2.6027      1.00000
     38      -2.5995      1.00000
     39      -2.5995      1.00000
     40      -2.5423      1.00000
     41      -2.5423      1.00000
     42      -2.5167      1.00000
     43      -2.2384      1.00000
     44      -2.2384      1.00000
     45      -0.5349      1.00000
     46       0.2673      1.00000
     47       0.2673      1.00000
     48       0.4552      1.00000
     49       0.6302      1.00000
     50       0.6302      1.00000
     51       0.6391      1.00000
     52       0.6608      1.00000
     53       0.6811      1.00000
     54       0.6811      1.00000
     55       0.8437      1.00000
     56       0.8437      1.00000
     57       0.8980      1.00000
     58       0.8980      1.00000
     59       1.0084      1.00000
     60       1.0777      1.00000
     61       1.0821      1.00000
     62       1.0821      1.00000
     63       1.0934      1.00000
     64       1.1771      1.00000
     65       1.1771      1.00000
     66       1.3158      1.00000
     67       1.3737      1.00000
     68       1.3737      1.00000
     69       1.4436      1.00000
     70       1.6192      1.00000
     71       1.6192      1.00000
     72       1.6970      1.00000
     73       1.7708      1.00000
     74       1.7708      1.00000
     75       1.8123      1.00000
     76       1.8494      1.00000
     77       1.8494      1.00000
     78       2.4481      1.00000
     79       2.4481      1.00000
     80       2.4890      1.00000
     81       3.0496      1.00000
     82       3.0496      1.00000
     83       3.1479      1.00000
     84       3.3688      1.00000
     85       3.4320      1.00000
     86       3.4320      1.00000
     87       3.9166      1.00000
     88       4.7149      1.00000
     89       4.7149      1.00000
     90       4.8132      1.00000
     91       4.8852      1.00000
     92       4.8852      1.00000
     93       5.0641      1.00000
     94       5.0641      1.00000
     95       5.2169      1.00000
     96       5.2289      1.00000
     97       5.2361      1.00000
     98       5.2361      1.00000
     99       5.3056      1.00000
    100       5.3056      1.00000
    101       5.3231      1.00000
    102       5.6942      1.00000
    103       5.7004      1.00000
    104       5.7004      1.00000
    105       6.0904      1.00000
    106       6.0904      1.00000
    107       6.3249      1.00000
    108       6.3347      1.00000
    109       6.3347      1.00000
    110       6.3348      1.00000
    111       6.3382      1.00000
    112       6.3874      1.00000
    113       6.3874      1.00000
    114       6.4227      1.00000
    115       6.4227      1.00000
    116       6.4244      1.00000
    117       6.5247      1.00000
    118       6.5247      1.00000
    119       6.7359      1.00000
    120       6.7500      1.00000
    121       6.7500      1.00000
    122       7.0587      1.00000
    123       8.6598      1.00000
    124       8.8542      1.00000
    125       8.8542      1.00000
    126      10.1037      1.00000
    127      11.4210      1.00000
    128      11.4210      1.00000
    129      13.6428      0.00000
    130      13.7501      0.00000
    131      13.7501      0.00000
    132      13.8872      0.00000
    133      13.9560      0.00000
    134      13.9561      0.00000
    135      14.2282      0.00000
    136      14.3031      0.00000
    137      14.3031      0.00000
    138      14.4214      0.00000
    139      14.4214      0.00000
    140      14.7300      0.00000
    141      15.3213      0.00000
    142      15.3213      0.00000
    143      15.3874      0.00000
    144      16.9473      0.00000
    145      17.1743      0.00000
    146      17.1743      0.00000
    147      17.2465      0.00000
    148      17.2984      0.00000
    149      17.2984      0.00000
    150      17.3975      0.00000
    151      17.3975      0.00000
    152      17.4015      0.00000
    153      17.4600      0.00000
    154      17.4600      0.00000
    155      17.5086      0.00000
    156      17.7953      0.00000
    157      17.7953      0.00000
    158      17.8187      0.00000
    159      17.8899      0.00000
    160      18.0619      0.00000
    161      18.0619      0.00000
    162      18.1653      0.00000
    163      18.1653      0.00000
    164      18.3372      0.00000
    165      18.4129      0.00000
    166      18.4129      0.00000
    167      19.0653      0.00000
    168      19.0812      0.00000
    169      19.0812      0.00000
    170      19.2455      0.00000
    171      19.2876      0.00000
    172      19.3225      0.00000
    173      19.3270      0.00000
    174      19.3270      0.00000
    175      19.3818      0.00000
    176      19.3818      0.00000
    177      19.5102      0.00000
    178      19.5516      0.00000
    179      19.5516      0.00000
    180      19.6380      0.00000
    181      19.6380      0.00000
    182      19.8358      0.00000
    183      19.8358      0.00000
    184      19.8441      0.00000
    185      19.9233      0.00000
    186      19.9632      0.00000
    187      20.0184      0.00000
    188      20.0184      0.00000
    189      20.1622      0.00000
    190      20.1652      0.00000
    191      20.1662      0.00000
    192      20.2061      0.00000

 k-point     2 :       0.3333    0.0000    0.0000
  band No.  band energies     occupation 
      1     -11.9646      1.00000
      2     -11.1843      1.00000
      3     -10.2565      1.00000
      4      -9.6176      1.00000
      5      -9.4973      1.00000
      6      -9.4030      1.00000
      7      -9.0803      1.00000
      8      -8.8719      1.00000
      9      -8.7436      1.00000
     10      -8.5741      1.00000
     11      -8.1010      1.00000
     12      -7.7095      1.00000
     13      -7.4029      1.00000
     14      -7.3777      1.00000
     15      -7.2607      1.00000
     16      -7.0103      1.00000
     17      -6.7968      1.00000
     18      -6.7193      1.00000
     19      -6.5052      1.00000
     20      -6.1766      1.00000
     21      -6.0800      1.00000
     22      -5.9507      1.00000
     23      -5.8967      1.00000
     24      -5.3620      1.00000
     25      -4.4347      1.00000
     26      -4.2690      1.00000
     27      -4.1461      1.00000
     28      -3.9276      1.00000
     29      -3.4121      1.00000
     30      -3.3239      1.00000
     31      -3.2244      1.00000
     32      -3.1642      1.00000
     33      -3.0913      1.00000
     34      -3.0108      1.00000
     35      -2.9958      1.00000
     36      -2.8983      1.00000
     37      -2.8253      1.00000
     38      -2.8233      1.00000
     39      -2.5834      1.00000
     40      -2.0996      1.00000
     41      -1.5848      1.00000
     42      -1.5549      1.00000
     43      -1.4074      1.00000
     44      -1.3529      1.00000
     45      -1.1595      1.00000
     46      -1.0854      1.00000
     47      -1.0820      1.00000
     48      -0.8152      1.00000
     49      -0.6133      1.00000
     50      -0.5629      1.00000
     51      -0.3987      1.00000
     52      -0.3934      1.00000
     53       0.3141      1.00000
     54       0.3911      1.00000
     55       0.4970      1.00000
     56       0.5117      1.00000
     57       0.7306      1.00000
     58       0.7913      1.00000
     59       0.9432      1.00000
     60       0.9882      1.00000
     61       1.4935      1.00000
     62       1.5326      1.00000
     63       1.5710      1.00000
     64       1.6472      1.00000
     65       1.6483      1.00000
     66       2.0285      1.00000
     67       2.0510      1.00000
     68       2.1547      1.00000
     69       2.1921      1.00000
     70       2.4918      1.00000
     71       2.5434      1.00000
     72       2.6262      1.00000
     73       2.6344      1.00000
     74       2.7683      1.00000
     75       2.8382      1.00000
     76       2.9133      1.00000
     77       2.9450      1.00000
     78       3.0373      1.00000
     79       3.0612      1.00000
     80       3.2013      1.00000
     81       3.2055      1.00000
     82       3.3390      1.00000
     83       3.3525      1.00000
     84       3.3819      1.00000
     85       3.5835      1.00000
     86       3.6098      1.00000
     87       3.6348      1.00000
     88       3.7146      1.00000
     89       3.8454      1.00000
     90       3.9182      1.00000
     91       4.1184      1.00000
     92       4.2265      1.00000
     93       4.2857      1.00000
     94       4.5067      1.00000
     95       4.5879      1.00000
     96       4.7308      1.00000
     97       4.7664      1.00000
     98       4.9003      1.00000
     99       5.0944      1.00000
    100       5.1546      1.00000
    101       5.2214      1.00000
    102       5.5305      1.00000
    103       5.6200      1.00000
    104       5.8099      1.00000
    105       5.8223      1.00000
    106       6.0800      1.00000
[...]
  0.001  -0.002   0.002   1.559  -0.002   0.000   0.128  -0.000
 -0.001   0.002  -0.002  -0.002   1.559  -0.000  -0.000   0.128
  0.000  -0.000   0.128   0.000  -0.000   0.012  -0.000   0.000
  0.000  -0.000   0.000   0.128  -0.000  -0.000   0.012   0.000
 -0.000   0.000  -0.000  -0.000   0.128   0.000   0.000   0.012
 total augmentation occupancy for first ion, spin component:           2
  0.000  -0.000   0.000   0.000  -0.000   0.000   0.000  -0.000
 -0.000   0.000  -0.000  -0.000   0.000  -0.000  -0.000   0.000
  0.000  -0.000   0.000   0.000  -0.000   0.000  -0.000   0.000
  0.000  -0.000   0.000   0.000  -0.000  -0.000   0.000   0.000
 -0.000   0.000  -0.000  -0.000   0.000   0.000   0.000   0.000
  0.000  -0.000   0.000  -0.000   0.000   0.000  -0.000   0.000
  0.000  -0.000  -0.000   0.000   0.000  -0.000   0.000   0.000
 -0.000   0.000   0.000   0.000   0.000   0.000   0.000   0.000


------------------------ aborting loop because EDIFF is reached ----------------------------------------


    CHARGE:  cpu time    0.1046: real time    0.1048
    FORLOC:  cpu time    0.0039: real time    0.0039
    FORNL :  cpu time    0.3141: real time    0.3149
    STRESS:  cpu time    0.6284: real time    0.6300
    FORCOR:  cpu time    0.0153: real time    0.0154
    FORHAR:  cpu time    0.0055: real time    0.0055
    MIXING:  cpu time    0.0011: real time    0.0011
    OFIELD:  cpu time    0.0000: real time    0.0000

  FORCE on cell =-STRESS in cart. coord.  units (eV):
  Direction    XX          YY          ZZ          XY          YZ          ZX
  --------------------------------------------------------------------------------------
  Alpha Z   901.27874   901.27874   901.27874
  Ewald   -3628.68955 -3628.68945 -3628.68946    11.47260   -11.47330    11.47304
  Hartree   315.18637   315.18637   315.18637     6.06296    -6.06296     6.06296
  E(xc)    -968.26287  -968.26287  -968.26287     0.00598    -0.00598     0.00598
  Local    -416.55954  -416.55963  -416.55963   -14.70228    14.70263   -14.70250
  n-local  -235.76972  -236.11095  -235.33395     0.53180    -0.66902     0.30957
  augment   -21.45318   -21.45318   -21.45318    -0.19052     0.19052    -0.19052
  Kinetic  4075.95035  4077.60409  4070.89685    -2.90569     2.76625    -1.69661
  Fock        0.00000     0.00000     0.00000     0.00000     0.00000     0.00000
  -------------------------------------------------------------------------------------
  Total      20.57886    20.57886    20.57886     0.69621    -0.69621     0.69621
  in kB      90.71100    90.71100    90.71100     3.06888    -3.06888     3.06888
  external pressure =       90.71 kB  Pullay stress =        0.00 kB


 VOLUME and BASIS-vectors are now :
 -----------------------------------------------------------------------------
  energy-cutoff  :      500.00
  volume of cell :      363.47
      direct lattice vectors                 reciprocal lattice vectors
     7.136588114  0.000000000  0.000000000     0.140122981  0.000000000  0.000000000
     0.000000000  7.136588114  0.000000000     0.000000000  0.140122981  0.000000000
     0.000000000  0.000000000  7.136588114     0.000000000  0.000000000  0.140122981

  length of vectors
     7.136588114  7.136588114  7.136588114     0.140122981  0.140122981  0.140122981


 FORCES acting on ions
    electron-ion (+dipol)            ewald-force                    non-local-force                 convergence-correction
 -----------------------------------------------------------------------------------------------
   -.419E+00 0.419E+00 0.419E+00   0.502E+00 -.502E+00 -.502E+00   -.827E-01 0.827E-01 0.827E-01   0.153E-04 -.153E-04 -.153E-04
   0.384E+01 0.345E+00 -.115E+02   -.452E+01 0.198E+00 0.119E+02   0.685E+00 -.543E+00 -.402E+00   0.529E-04 0.185E-04 -.877E-04
   -.425E+00 0.385E+01 -.298E+01   0.131E+01 -.444E+01 0.336E+01   -.886E+00 0.588E+00 -.381E+00   0.121E-04 0.290E-04 -.635E-04
   -.173E+02 -.583E+01 -.583E+01   0.182E+02 0.596E+01 0.596E+01   -.936E+00 -.127E+00 -.127E+00   -.122E-03 -.628E-04 -.628E-04
   0.115E+02 0.345E+00 -.384E+01   -.119E+02 0.198E+00 0.452E+01   0.402E+00 -.543E+00 -.685E+00   0.877E-04 0.185E-04 -.529E-04
   0.583E+01 0.173E+02 -.583E+01   -.596E+01 -.182E+02 0.596E+01   0.127E+00 0.936E+00 -.127E+00   0.628E-04 0.122E-03 -.628E-04
   -.345E+00 -.115E+02 -.384E+01   -.198E+00 0.119E+02 0.452E+01   0.543E+00 -.402E+00 -.685E+00   -.185E-04 -.877E-04 -.529E-04
   -.171E+02 0.516E+01 0.516E+01   0.180E+02 -.514E+01 -.514E+01   -.886E+00 -.196E-01 -.196E-01   -.726E-04 0.904E-04 0.904E-04
   0.298E+01 0.385E+01 0.425E+00   -.336E+01 -.444E+01 -.131E+01   0.381E+00 0.588E+00 0.886E+00   0.635E-04 0.290E-04 -.121E-04
   0.384E+01 -.115E+02 0.345E+00   -.452E+01 0.119E+02 0.198E+00   0.685E+00 -.402E+00 -.543E+00   0.529E-04 -.877E-04 0.185E-04
   -.479E+02 -.564E+02 0.479E+02   0.531E+02 0.615E+02 -.531E+02   -.514E+01 -.512E+01 0.514E+01   -.345E-04 -.989E-04 0.345E-04
   -.201E+01 0.201E+01 0.201E+01   0.219E+01 -.219E+01 -.219E+01   -.183E+00 0.183E+00 0.183E+00   0.547E-05 -.547E-05 -.547E-05
   0.131E+01 -.131E+01 0.191E+01   -.135E+01 0.135E+01 -.208E+01   0.360E-01 -.360E-01 0.171E+00   -.420E-04 0.420E-04 -.216E-04
   0.583E+01 -.583E+01 0.173E+02   -.596E+01 0.596E+01 -.182E+02   0.127E+00 -.127E+00 0.936E+00   0.628E-04 -.628E-04 0.122E-03
   -.187E+01 -.290E+01 0.187E+01   0.198E+01 0.313E+01 -.198E+01   -.113E+00 -.221E+00 0.113E+00   0.681E-04 0.598E-05 -.681E-04
   -.516E+01 0.516E+01 0.171E+02   0.514E+01 -.514E+01 -.180E+02   0.196E-01 -.196E-01 0.886E+00   -.904E-04 0.904E-04 0.726E-04
   -.479E+02 0.479E+02 -.564E+02   0.531E+02 -.531E+02 0.615E+02   -.514E+01 0.514E+01 -.512E+01   -.345E-04 0.345E-04 -.989E-04
   -.380E+01 0.380E+01 -.159E+01   0.432E+01 -.432E+01 0.254E+01   -.523E+00 0.523E+00 -.952E+00   -.809E-04 0.809E-04 0.551E-04
   0.115E+02 -.384E+01 0.345E+00   -.119E+02 0.452E+01 0.198E+00   0.402E+00 -.685E+00 -.543E+00   0.877E-04 -.529E-04 0.185E-04
   0.564E+02 0.479E+02 0.479E+02   -.615E+02 -.531E+02 -.531E+02   0.512E+01 0.514E+01 0.514E+01   0.989E-04 0.345E-04 0.345E-04
   -.516E+01 0.171E+02 0.516E+01   0.514E+01 -.180E+02 -.514E+01   0.196E-01 0.886E+00 -.196E-01   -.904E-04 0.726E-04 0.904E-04
   -.385E+01 -.298E+01 0.424E+00   0.444E+01 0.336E+01 -.131E+01   -.588E+00 -.381E+00 0.886E+00   -.290E-04 -.635E-04 -.121E-04
   0.298E+01 0.425E+00 0.385E+01   -.336E+01 -.131E+01 -.444E+01   0.381E+00 0.886E+00 0.588E+00   0.635E-04 -.121E-04 0.290E-04
   0.159E+01 0.380E+01 0.380E+01   -.254E+01 -.432E+01 -.432E+01   0.952E+00 0.523E+00 0.523E+00   -.551E-04 0.809E-04 0.809E-04
   -.425E+00 -.298E+01 0.385E+01   0.131E+01 0.336E+01 -.444E+01   -.886E+00 -.381E+00 0.588E+00   0.121E-04 -.635E-04 0.290E-04
   -.380E+01 -.159E+01 0.380E+01   0.432E+01 0.254E+01 -.432E+01   -.523E+00 -.952E+00 0.523E+00   -.809E-04 0.551E-04 0.809E-04
   0.131E+01 0.191E+01 -.131E+01   -.135E+01 -.208E+01 0.135E+01   0.360E-01 0.171E+00 -.360E-01   -.420E-04 -.216E-04 0.420E-04
   0.290E+01 0.187E+01 0.187E+01   -.313E+01 -.198E+01 -.198E+01   0.221E+00 0.113E+00 0.113E+00   -.598E-05 -.681E-04 -.681E-04
   -.345E+00 -.384E+01 -.115E+02   -.198E+00 0.452E+01 0.119E+02   0.543E+00 -.685E+00 -.402E+00   -.185E-04 -.529E-04 -.877E-04
   -.187E+01 0.187E+01 -.290E+01   0.198E+01 -.198E+01 0.313E+01   -.113E+00 0.113E+00 -.221E+00   0.681E-04 -.681E-04 0.598E-05
   -.385E+01 0.425E+00 -.298E+01   0.444E+01 -.131E+01 0.336E+01   -.588E+00 0.886E+00 -.381E+00   -.290E-04 -.121E-04 -.635E-04
   -.191E+01 -.131E+01 -.131E+01   0.208E+01 0.135E+01 0.135E+01   -.171E+00 -.360E-01 -.360E-01   0.216E-04 0.420E-04 0.420E-04
   -.341E+01 -.515E+01 -.630E+00   0.354E+01 0.520E+01 0.210E+00   -.132E+00 -.480E-01 0.420E+00   -.254E-04 -.696E-04 0.458E-04
   0.264E+01 -.264E+01 0.620E+01   -.289E+01 0.289E+01 -.652E+01   0.244E+00 -.244E+00 0.319E+00   0.202E-04 -.202E-04 -.324E-04
   0.171E+01 -.171E+01 0.467E+01   -.179E+01 0.179E+01 -.507E+01   0.837E-01 -.837E-01 0.401E+00   0.516E-05 -.516E-05 -.381E-05
   -.395E+01 0.395E+01 0.199E+01   0.421E+01 -.421E+01 -.187E+01   -.264E+00 0.264E+00 -.128E+00   0.152E-04 -.152E-04 -.526E-05
   -.620E+01 -.264E+01 -.264E+01   0.652E+01 0.289E+01 0.289E+01   -.319E+00 -.244E+00 -.244E+00   0.324E-04 -.202E-04 -.202E-04
   0.812E+01 -.233E+02 -.812E+01   -.628E+01 0.257E+02 0.628E+01   -.183E+01 -.237E+01 0.183E+01   0.107E-03 -.372E-04 -.107E-03
   -.110E+02 0.152E+02 -.185E+02   0.103E+02 -.160E+02 0.196E+02   0.754E+00 0.819E+00 -.113E+01   -.620E-04 0.927E-04 -.856E-04
   -.341E+01 -.630E+00 -.515E+01   0.354E+01 0.210E+00 0.520E+01   -.132E+00 0.420E+00 -.480E-01   -.254E-04 0.458E-04 -.696E-04
   -.467E+01 -.171E+01 -.171E+01   0.507E+01 0.179E+01 0.179E+01   -.401E+00 -.837E-01 -.837E-01   0.381E-05 -.516E-05 -.516E-05
   0.185E+02 0.152E+02 0.110E+02   -.196E+02 -.160E+02 -.103E+02   0.113E+01 0.819E+00 -.754E+00   0.856E-04 0.927E-04 0.620E-04
   0.171E+01 0.467E+01 -.171E+01   -.179E+01 -.507E+01 0.179E+01   0.837E-01 0.401E+00 -.837E-01   0.516E-05 -.381E-05 -.516E-05
   -.152E+02 -.185E+02 0.110E+02   0.160E+02 0.196E+02 -.103E+02   -.819E+00 -.113E+01 -.754E+00   -.927E-04 -.856E-04 0.620E-04
   -.199E+01 0.395E+01 0.395E+01   0.187E+01 -.421E+01 -.421E+01   0.128E+00 0.264E+00 0.264E+00   0.526E-05 -.152E-04 -.152E-04
   0.515E+01 -.630E+00 0.341E+01   -.520E+01 0.210E+00 -.354E+01   0.480E-01 0.420E+00 0.132E+00   0.696E-04 0.458E-04 0.254E-04
   -.817E+00 0.130E+01 0.817E+00   0.105E+01 -.916E+00 -.105E+01   -.232E+00 -.384E+00 0.232E+00   -.107E-04 -.186E-04 0.107E-04
   -.110E+02 -.185E+02 0.152E+02   0.103E+02 0.196E+02 -.160E+02   0.754E+00 -.113E+01 0.819E+00   -.620E-04 -.856E-04 0.927E-04
   0.264E+01 0.620E+01 -.264E+01   -.289E+01 -.652E+01 0.289E+01   0.244E+00 0.319E+00 -.244E+00   0.202E-04 -.324E-04 -.202E-04
   0.233E+02 -.812E+01 -.812E+01   -.257E+02 0.628E+01 0.628E+01   0.237E+01 0.183E+01 0.183E+01   0.372E-04 -.107E-03 -.107E-03
   -.152E+02 0.110E+02 -.185E+02   0.160E+02 -.103E+02 0.196E+02   -.819E+00 -.754E+00 -.113E+01   -.927E-04 0.620E-04 -.856E-04
   0.630E+00 0.341E+01 -.515E+01   -.210E+00 -.354E+01 0.520E+01   -.420E+00 0.132E+00 -.480E-01   -.458E-04 0.254E-04 -.696E-04
   0.812E+01 -.812E+01 -.233E+02   -.628E+01 0.628E+01 0.257E+02   -.183E+01 0.183E+01 -.237E+01   0.107E-03 -.107E-03 -.372E-04
   -.195E+02 0.195E+02 -.112E+02   0.206E+02 -.206E+02 0.107E+02   -.107E+01 0.107E+01 0.419E+00   -.102E-03 0.102E-03 0.790E-04
   -.817E+00 0.817E+00 0.130E+01   0.105E+01 -.105E+01 -.916E+00   -.232E+00 0.232E+00 -.384E+00   -.107E-04 0.107E-04 -.186E-04
   0.185E+02 0.110E+02 0.152E+02   -.196E+02 -.103E+02 -.160E+02   0.113E+01 -.754E+00 0.819E+00   0.856E-04 0.620E-04 0.927E-04
   0.112E+02 0.195E+02 0.195E+02   -.107E+02 -.206E+02 -.206E+02   -.419E+00 0.107E+01 0.107E+01   -.790E-04 0.102E-03 0.102E-03
   -.395E+01 0.199E+01 0.395E+01   0.421E+01 -.187E+01 -.421E+01   -.264E+00 -.128E+00 0.264E+00   0.152E-04 -.526E-05 -.152E-04
   0.630E+00 -.515E+01 0.341E+01   -.210E+00 0.520E+01 -.354E+01   -.420E+00 -.480E-01 0.132E+00   -.458E-04 -.696E-04 0.254E-04
   0.515E+01 0.341E+01 -.630E+00   -.520E+01 -.354E+01 0.210E+00   0.480E-01 0.132E+00 0.420E+00   0.696E-04 0.254E-04 0.458E-04
   -.130E+01 0.817E+00 0.817E+00   0.916E+00 -.105E+01 -.105E+01   0.384E+00 0.232E+00 0.232E+00   0.186E-04 0.107E-04 0.107E-04
   -.195E+02 -.112E+02 0.195E+02   0.206E+02 0.107E+02 -.206E+02   -.107E+01 0.419E+00 0.107E+01   -.102E-03 0.790E-04 0.102E-03
   0.644E+02 -.644E+02 -.644E+02   -.770E+02 0.770E+02 0.770E+02   0.127E+02 -.127E+02 -.127E+02   0.982E-04 -.982E-04 -.982E-04
 -----------------------------------------------------------------------------------------------
   -.331E+01 0.331E+01 0.331E+01   -.213E-12 -.142E-13 0.000E+00   0.331E+01 -.331E+01 -.331E+01   0.336E-04 -.336E-04 -.336E-04
 
 
 POSITION                                       TOTAL-FORCE (eV/Angst)
 -----------------------------------------------------------------------------------
      0.00141      7.13518      7.13518         0.000458     -0.000458     -0.000458
      4.45077      4.45042      0.90259         0.000489     -0.000040      0.000436
      2.68123      6.25264      0.88188         0.002581     -0.000366     -0.000655
      0.90182      2.68104      2.68104         0.001121     -0.001556     -0.001556
      6.23399      4.45042      2.68582        -0.000436     -0.000040     -0.000489
      4.45555      6.23477      2.68104         0.001556     -0.001121     -0.001556
      2.68617      0.90259      2.68582         0.000040      0.000436     -0.000489
      0.90152      4.45501      4.45501         0.001657     -0.002008     -0.002008
      6.25471      6.25264      4.45536         0.000655     -0.000366     -0.002581
      4.45077      0.90259      4.45042         0.000489      0.000436     -0.000040
      2.59625      2.58359      4.54034         0.000539     -0.004729     -0.000539
      0.89579      6.24080      6.24080        -0.000265      0.000265      0.000265
      6.24289      0.89370      6.24104         0.000623     -0.000623      0.001821
      4.45555      2.68104      6.23477         0.001556     -0.001556     -0.001121
      6.24649      2.67483      0.89010        -0.001531      0.003013      0.001531
      2.68158      4.45501      6.23507         0.002008     -0.002008     -0.001657
      2.59625      4.54034      2.58359         0.000539     -0.000539     -0.004729
      0.88363      6.25295      2.68052        -0.000630      0.000630     -0.000463
      6.23399      2.68582      4.45042        -0.000436     -0.000489     -0.000040
      4.55300      4.54034      4.54034         0.004729     -0.000539     -0.000539
      2.68158      6.23507      4.45501         0.002008     -0.001657     -0.002008
      0.88395      0.88188      4.45536         0.000366     -0.000655     -0.002581
      6.25471      4.45535      6.25264         0.000655     -0.002581     -0.000366
      4.45607      6.25295      6.25295         0.000463      0.000630      0.000630
      2.68123      0.88188      6.25264         0.002581     -0.000655     -0.000366
      0.88363      2.68052      6.25295        -0.000630     -0.000463      0.000630
      6.24289      6.24104      0.89370         0.000623      0.001821     -0.000623
      4.46176      0.89010      0.89010        -0.003013      0.001531      0.001531
      2.68617      2.68582      0.90259         0.000040     -0.000489      0.000436
      6.24649      0.89010      2.67483        -0.001531      0.001531      0.003013
      0.88395      4.45536      0.88188         0.000366     -0.002581     -0.000655
      0.89555      0.89370      0.89370        -0.001821     -0.000623     -0.000623
      1.78977      1.78450      0.00526        -0.000537      0.000061      0.000008
      5.34984      1.78675      7.13110        -0.002428      0.002428      0.001322
      3.56884      3.56775      7.13331        -0.001030      0.001030     -0.000235
      1.78756      5.34903      7.13095         0.001028     -0.001028     -0.001355
      0.00548      1.78675      1.78675        -0.001322      0.002428      0.002428
      5.34110      3.54413      1.79549        -0.000973      0.001336      0.000973
      3.55338      5.34347      1.79072        -0.001628      0.001442     -0.000331
      1.78977      0.00526      1.78450        -0.000537      0.000008      0.000061
      0.00328      3.56775      3.56775         0.000235      0.001030      0.001030
      5.34587      5.34347      3.58321         0.000331      0.001442      0.001628
      3.56884      7.13331      3.56775        -0.001030     -0.000235      0.001030
      1.79312      1.79072      3.58321        -0.001442     -0.000331      0.001628
      0.00564      5.34903      5.34903         0.001355     -0.001028     -0.001028
      5.35209      0.00526      5.34682        -0.000061      0.000008      0.000537
      7.13313      3.57008      0.00346        -0.000082      0.000194      0.000082
      3.55338      1.79072      5.34347        -0.001628     -0.000331      0.001442
      5.34984      7.13110      1.78675        -0.002428      0.001322      0.002428
      3.59246      1.79549      1.79549        -0.001336      0.000973      0.000973
      1.79311      3.58321      1.79072        -0.001442      0.001628     -0.000331
      7.13133      5.34682      1.78450        -0.000008      0.000537      0.000061
      5.34110      1.79549      3.54413        -0.000973      0.000973      0.001336
      1.79479      5.34180      3.55650         0.000281     -0.000281      0.000776
      7.13313      0.00346      3.57008        -0.000082      0.000082      0.000194
      5.34587      3.58321      5.34347         0.000331      0.001628      0.001442
      3.58008      5.34180      5.34180        -0.000776     -0.000281     -0.000281
      1.78756      7.13095      5.34903         0.001028     -0.001355     -0.001028
      7.13133      1.78450      5.34682        -0.000008      0.000061      0.000537
      5.35209      5.34682      0.00526        -0.000061      0.000537      0.000008
      3.56651      0.00346      0.00346        -0.000194      0.000082      0.000082
      1.79479      3.55650      5.34180         0.000281      0.000776     -0.000281
      4.50611      2.63048      2.63048        -0.000711      0.000711      0.000711
 -----------------------------------------------------------------------------------
    total drift:                               -0.000980      0.000491     -0.002859


--------------------------------------------------------------------------------------------------------



  FREE ENERGIE OF THE ION-ELECTRON SYSTEM (eV)
  ---------------------------------------------------
  free  energy   TOTEN  =      -553.50833766 eV

  energy  without entropy=     -553.50833766  energy(sigma->0) =     -553.50833766
 
 d Force = 0.1689384E-04[-0.966E-07, 0.339E-04]  d Energy = 0.1695783E-04-0.640E-07
 d Force =-0.9078457E-01[-0.909E-01,-0.907E-01]  d Ewald  =-0.9078457E-01 0.245E-08


--------------------------------------------------------------------------------------------------------


    POTLOK:  cpu time    0.0483: real time    0.0484


--------------------------------------------------------------------------------------------------------


 stress matrix after NEB project (eV)
     20.57886      0.69621      0.69621
      0.69621     20.57886     -0.69621
      0.69621     -0.69621     20.57886
  FORCES: max atom, RMS     0.004790    0.002281
  FORCE total and by dimension    0.018102    0.004729
  Stress total and by dimension   35.684402   20.578859


--------------------------------------------------------------------------------------------------------


  
 reached required accuracy - stopping structural energy minimisation
 writing wavefunctions
     LOOP+:  cpu time    8.7257: real time    9.1644
    4ORBIT:  cpu time    0.0000: real time    0.0000

 total amount of memory used by VASP MPI-rank0    46326. kBytes
=======================================================================

   base      :      30000. kBytes
   nonl-proj :       8297. kBytes
   fftplans  :       1888. kBytes
   grid      :       3107. kBytes
   one-center:        196. kBytes
   wavefun   :       2838. kBytes
 
  
  
 General timing and accounting informations for this job:
 ========================================================
  
                  Total CPU time used (sec):      100.876
                            User time (sec):       97.922
                          System time (sec):        2.954
                         Elapsed time (sec):      102.953
  
                   Maximum memory used (kb):      200344.
                   Average memory used (kb):           0.
  
                          Minor page faults:       373166
                          Major page faults:            0
                 Voluntary context switches:        25883
