
     Program PWSCF v.6.1 (svn rev. 13369) starts on 25Oct2018 at 19: 3:20 

     This program is part of the open-source Quantum ESPRESSO suite
     for quantum simulation of materials; please cite
         "P. Giannozzi et al., J. Phys.:Condens. Matter 21 395502 (2009);
          URL http://www.quantum-espresso.org", 
     in publications or presentations arising from this work. More details at
     http://www.quantum-espresso.org/quote

     Parallel version (MPI), running on    32 processors
     K-points division:     npool     =       2
     R & G space division:  proc/nbgrp/npool/nimage =      16
     Waiting for input...
     Reading input from standard input
Warning: card  &CELL ignored
Warning: card  / ignored

     Current dimensions of program PWSCF are:
     Max number of different atomic species (ntypx) = 10
     Max number of k-points (npk) =  40000
     Max angular momentum in pseudopotentials (lmaxx) =  3

     Subspace diagonalization in iterative solution of the eigenvalue problem:
     one sub-group per band group will be used
     scalapack distributed-memory algorithm (size of sub-group:  2*  2 procs)

 
     Parallelization info
     --------------------
     sticks:   dense  smooth     PW     G-vecs:    dense   smooth      PW
     Min         252     252     66                12125    12125    1624
     Max         254     254     67                12129    12129    1627
     Sum        4049    4049   1069               194039   194039   26001
 


     bravais-lattice index     =            0
     lattice parameter (alat)  =      13.4862  a.u.
     unit-cell volume          =    2452.8359 (a.u.)^3
     number of atoms/cell      =           63
     number of atomic types    =            2
     number of electrons       =       254.00
     number of Kohn-Sham states=          152
     kinetic-energy cutoff     =      70.0000  Ry
     charge density cutoff     =     280.0000  Ry
     convergence threshold     =      1.0E-08
     mixing beta               =       0.7000
     number of iterations used =            8  plain     mixing
     Exchange-correlation      = PBE ( 1  4  3  4 0 0)
     nstep                     =           50


     celldm(1)=  13.486197  celldm(2)=   0.000000  celldm(3)=   0.000000
     celldm(4)=   0.000000  celldm(5)=   0.000000  celldm(6)=   0.000000

     crystal axes: (cart. coord. in units of alat)
               a(1) = (   1.000000   0.000000   0.000000 )  
               a(2) = (   0.000000   1.000000   0.000000 )  
               a(3) = (   0.000000   0.000000   1.000000 )  

     reciprocal axes: (cart. coord. in units 2 pi/alat)
               b(1) = (  1.000000  0.000000  0.000000 )  
               b(2) = (  0.000000  1.000000  0.000000 )  
               b(3) = (  0.000000  0.000000  1.000000 )  


     PseudoPot. # 1 for C  read from file:
     ./C_ONCV_PBE-1.0.upf
     MD5 check sum: 72b63e32b2fd29504de26a4901699f60
     Pseudo is Norm-conserving, Zval =  4.0
     Generated using ONCVPSP code by D. R. Hamann
     Using radial grid of 1248 points,  4 beta functions with: 
                l(1) =   0
                l(2) =   0
                l(3) =   1
                l(4) =   1

     PseudoPot. # 2 for N  read from file:
     ./N_ONCV_PBE-1.0.upf
     MD5 check sum: 09890da6b2972017450f7114a6086fad
     Pseudo is Norm-conserving, Zval =  5.0
     Generated using ONCVPSP code by D. R. Hamann
     Using radial grid of 1058 points,  4 beta functions with: 
                l(1) =   0
                l(2) =   0
                l(3) =   1
                l(4) =   1

     atomic species   valence    mass     pseudopotential
        C              4.00    12.01110     C ( 1.00)
        N              5.00    14.00670     N ( 1.00)

     Starting magnetic structure 
     atomic species   magnetization
        C            0.000
        N            1.000

      6 Sym. Ops. (no inversion) found


                                    s                        frac. trans.

      isym =  1     identity                                     

 cryst.   s( 1) = (     1          0          0      )
                  (     0          1          0      )
                  (     0          0          1      )

 cart.    s( 1) = (  1.0000000  0.0000000  0.0000000 )
                  (  0.0000000  1.0000000  0.0000000 )
                  (  0.0000000  0.0000000  1.0000000 )


      isym =  2     120 deg rotation - cart. axis [-1,1,1]       

 cryst.   s( 2) = (     0          0         -1      )
                  (    -1          0          0      )
                  (     0          1          0      )

 cart.    s( 2) = (  0.0000000 -1.0000000  0.0000000 )
                  (  0.0000000  0.0000000  1.0000000 )
                  ( -1.0000000  0.0000000  0.0000000 )


      isym =  3     120 deg rotation - cart. axis [1,-1,-1]      

 cryst.   s( 3) = (     0         -1          0      )
                  (     0          0          1      )
                  (    -1          0          0      )

 cart.    s( 3) = (  0.0000000  0.0000000 -1.0000000 )
                  ( -1.0000000  0.0000000  0.0000000 )
                  (  0.0000000  1.0000000  0.0000000 )


      isym =  4     inv. 180 deg rotation - cart. axis [1,1,0]   

 cryst.   s( 4) = (     0         -1          0      )
                  (    -1          0          0      )
                  (     0          0          1      )

 cart.    s( 4) = (  0.0000000 -1.0000000  0.0000000 )
                  ( -1.0000000  0.0000000  0.0000000 )
                  (  0.0000000  0.0000000  1.0000000 )


      isym =  5     inv. 180 deg rotation - cart. axis [1,0,1]   

 cryst.   s( 5) = (     0          0         -1      )
                  (     0          1          0      )
                  (    -1          0          0      )

 cart.    s( 5) = (  0.0000000  0.0000000 -1.0000000 )
                  (  0.0000000  1.0000000  0.0000000 )
                  ( -1.0000000  0.0000000  0.0000000 )


      isym =  6     inv. 180 deg rotation - cart. axis [0,1,-1]  

 cryst.   s( 6) = (     1          0          0      )
                  (     0          0          1      )
                  (     0          1          0      )

 cart.    s( 6) = (  1.0000000  0.0000000  0.0000000 )
                  (  0.0000000  0.0000000  1.0000000 )
                  (  0.0000000  1.0000000  0.0000000 )


   Cartesian axes

     site n.     atom                  positions (alat units)
         1           C   tau(   1) = (   0.0001450  -0.0001450  -0.0001450  )
         2           C   tau(   2) = (   0.7500641   0.2499360  -0.0014345  )
         3           C   tau(   3) = (   0.4998526   0.5001474   0.0001444  )
         4           C   tau(   4) = (   0.2500801   0.7499199   0.0003279  )
         5           C   tau(   5) = (   0.0014345   0.2499360   0.2499360  )
         6           C   tau(   6) = (   0.7496871   0.4942392   0.2503130  )
         7           C   tau(   7) = (   0.4985201   0.7480409   0.2528071  )
         8           C   tau(   8) = (   0.2511626   0.0009454   0.2504490  )
         9           C   tau(   9) = (  -0.0001444   0.5001474   0.5001475  )
        10           C   tau(  10) = (   0.7471930   0.7480409   0.5014800  )
        11           C   tau(  11) = (   0.4998526   0.0001444   0.5001474  )
        12           C   tau(  12) = (   0.2519591   0.2528070   0.5014800  )
        13           C   tau(  13) = (  -0.0003279   0.7499199   0.7499199  )
        14           C   tau(  14) = (   0.7495511   0.0009454   0.7488374  )
        15           C   tau(  15) = (   0.4985201   0.2528070   0.7480409  )
        16           C   tau(  16) = (   0.2503082   0.4994439   0.7496919  )
        17           C   tau(  17) = (   0.7500641  -0.0014345   0.2499360  )
        18           C   tau(  18) = (   0.5057608   0.2503130   0.2503130  )
        19           C   tau(  19) = (   0.2519591   0.5014799   0.2528071  )
        20           C   tau(  20) = (  -0.0009454   0.7488374   0.2504490  )
        21           C   tau(  21) = (   0.7496871   0.2503129   0.4942393  )
        22           C   tau(  22) = (   0.2503082   0.7496918   0.4994440  )
        23           C   tau(  23) = (  -0.0000282   0.0000282   0.4999286  )
        24           C   tau(  24) = (   0.7471930   0.5014799   0.7480409  )
        25           C   tau(  25) = (   0.5005562   0.7496918   0.7496918  )
        26           C   tau(  26) = (   0.2500801   0.0003279   0.7499200  )
        27           C   tau(  27) = (  -0.0009454   0.2504490   0.7488374  )
        28           C   tau(  28) = (   0.7495511   0.7488374   0.0009454  )
        29           C   tau(  29) = (   0.5000714   0.0000282   0.0000282  )
        30           C   tau(  30) = (   0.2511626   0.2504490   0.0009454  )
        31           C   tau(  31) = (  -0.0000282   0.4999286   0.0000282  )
        32           C   tau(  32) = (   0.1260473   0.1251810   0.1251810  )
        33           C   tau(  33) = (   0.8765433   0.3746068   0.1234568  )
        34           C   tau(  34) = (   0.6237348   0.6228059   0.1272435  )
        35           C   tau(  35) = (   0.3757334   0.8756083   0.1248712  )
        36           C   tau(  36) = (   0.1261518   0.3755703   0.3755703  )
        37           C   tau(  37) = (   0.8727565   0.6228059   0.3762653  )
        38           C   tau(  38) = (   0.6244297   0.8738481   0.3755703  )
        39           C   tau(  39) = (   0.3771941   0.1272435   0.3762652  )
        40           C   tau(  40) = (   0.1250374   0.6251343   0.6251344  )
        41           C   tau(  41) = (   0.8751288   0.8756083   0.6242666  )
        42           C   tau(  42) = (   0.6237348   0.1272435   0.6228059  )
        43           C   tau(  43) = (   0.3662537   0.3700518   0.6337464  )
        44           C   tau(  44) = (   0.1250524   0.8749477   0.8749477  )
        45           C   tau(  45) = (   0.8748191   0.1251810   0.8739528  )
        46           C   tau(  46) = (   0.6244297   0.3755703   0.8738482  )
        47           C   tau(  47) = (   0.3748656   0.6251344   0.8749626  )
        48           C   tau(  48) = (   0.8765433   0.1234567   0.3746069  )
        49           C   tau(  49) = (   0.3662537   0.6337464   0.3700518  )
        50           C   tau(  50) = (   0.1240302   0.8759698   0.3760520  )
        51           C   tau(  51) = (   0.8727566   0.3762652   0.6228059  )
        52           C   tau(  52) = (   0.6299482   0.6337463   0.6337464  )
        53           C   tau(  53) = (   0.3748656   0.8749625   0.6251344  )
        54           C   tau(  54) = (   0.1243917   0.1248712   0.6242667  )
        55           C   tau(  55) = (   0.8751288   0.6242666   0.8756083  )
        56           C   tau(  56) = (   0.6239480   0.8759698   0.8759698  )
        57           C   tau(  57) = (   0.3757334   0.1248712   0.8756083  )
        58           C   tau(  58) = (   0.1240302   0.3760520   0.8759698  )
        59           C   tau(  59) = (   0.8748191   0.8739527   0.1251810  )
        60           C   tau(  60) = (   0.6253932   0.1234568   0.1234568  )
        61           C   tau(  61) = (   0.3771941   0.3762652   0.1272435  )
        62           C   tau(  62) = (   0.1243917   0.6242666   0.1248712  )
        63           N   tau(  63) = (   0.6363568   0.3636432   0.3636432  )

   Crystallographic axes

     site n.     atom                  positions (cryst. coord.)
         1           C   tau(   1) = (  0.0001450 -0.0001450 -0.0001450  )
         2           C   tau(   2) = (  0.7500641  0.2499360 -0.0014345  )
         3           C   tau(   3) = (  0.4998526  0.5001474  0.0001444  )
         4           C   tau(   4) = (  0.2500801  0.7499199  0.0003279  )
         5           C   tau(   5) = (  0.0014345  0.2499360  0.2499360  )
         6           C   tau(   6) = (  0.7496871  0.4942392  0.2503130  )
         7           C   tau(   7) = (  0.4985201  0.7480409  0.2528071  )
         8           C   tau(   8) = (  0.2511626  0.0009454  0.2504490  )
         9           C   tau(   9) = ( -0.0001444  0.5001474  0.5001475  )
        10           C   tau(  10) = (  0.7471930  0.7480409  0.5014800  )
        11           C   tau(  11) = (  0.4998526  0.0001444  0.5001474  )
        12           C   tau(  12) = (  0.2519591  0.2528070  0.5014800  )
        13           C   tau(  13) = ( -0.0003279  0.7499199  0.7499199  )
        14           C   tau(  14) = (  0.7495511  0.0009454  0.7488374  )
        15           C   tau(  15) = (  0.4985201  0.2528070  0.7480409  )
        16           C   tau(  16) = (  0.2503082  0.4994439  0.7496919  )
        17           C   tau(  17) = (  0.7500641 -0.0014345  0.2499360  )
        18           C   tau(  18) = (  0.5057608  0.2503130  0.2503130  )
        19           C   tau(  19) = (  0.2519591  0.5014799  0.2528071  )
        20           C   tau(  20) = ( -0.0009454  0.7488374  0.2504490  )
        21           C   tau(  21) = (  0.7496871  0.2503129  0.4942393  )
        22           C   tau(  22) = (  0.2503082  0.7496918  0.4994440  )
        23           C   tau(  23) = ( -0.0000282  0.0000282  0.4999286  )
        24           C   tau(  24) = (  0.7471930  0.5014799  0.7480409  )
        25           C   tau(  25) = (  0.5005562  0.7496918  0.7496918  )
        26           C   tau(  26) = (  0.2500801  0.0003279  0.7499200  )
        27           C   tau(  27) = ( -0.0009454  0.2504490  0.7488374  )
        28           C   tau(  28) = (  0.7495511  0.7488374  0.0009454  )
        29           C   tau(  29) = (  0.5000714  0.0000282  0.0000282  )
        30           C   tau(  30) = (  0.2511626  0.2504490  0.0009454  )
        31           C   tau(  31) = ( -0.0000282  0.4999286  0.0000282  )
        32           C   tau(  32) = (  0.1260473  0.1251810  0.1251810  )
        33           C   tau(  33) = (  0.8765433  0.3746068  0.1234568  )
        34           C   tau(  34) = (  0.6237348  0.6228059  0.1272435  )
        35           C   tau(  35) = (  0.3757334  0.8756083  0.1248712  )
        36           C   tau(  36) = (  0.1261518  0.3755703  0.3755703  )
        37           C   tau(  37) = (  0.8727565  0.6228059  0.3762653  )
        38           C   tau(  38) = (  0.6244297  0.8738481  0.3755703  )
        39           C   tau(  39) = (  0.3771941  0.1272435  0.3762652  )
        40           C   tau(  40) = (  0.1250374  0.6251343  0.6251344  )
        41           C   tau(  41) = (  0.8751288  0.8756083  0.6242666  )
        42           C   tau(  42) = (  0.6237348  0.1272435  0.6228059  )
        43           C   tau(  43) = (  0.3662537  0.3700518  0.6337464  )
        44           C   tau(  44) = (  0.1250524  0.8749477  0.8749477  )
        45           C   tau(  45) = (  0.8748191  0.1251810  0.8739528  )
        46           C   tau(  46) = (  0.6244297  0.3755703  0.8738482  )
        47           C   tau(  47) = (  0.3748656  0.6251344  0.8749626  )
        48           C   tau(  48) = (  0.8765433  0.1234567  0.3746069  )
        49           C   tau(  49) = (  0.3662537  0.6337464  0.3700518  )
        50           C   tau(  50) = (  0.1240302  0.8759698  0.3760520  )
        51           C   tau(  51) = (  0.8727566  0.3762652  0.6228059  )
        52           C   tau(  52) = (  0.6299482  0.6337463  0.6337464  )
        53           C   tau(  53) = (  0.3748656  0.8749625  0.6251344  )
        54           C   tau(  54) = (  0.1243917  0.1248712  0.6242667  )
        55           C   tau(  55) = (  0.8751288  0.6242666  0.8756083  )
        56           C   tau(  56) = (  0.6239480  0.8759698  0.8759698  )
        57           C   tau(  57) = (  0.3757334  0.1248712  0.8756083  )
        58           C   tau(  58) = (  0.1240302  0.3760520  0.8759698  )
        59           C   tau(  59) = (  0.8748191  0.8739527  0.1251810  )
        60           C   tau(  60) = (  0.6253932  0.1234568  0.1234568  )
        61           C   tau(  61) = (  0.3771941  0.3762652  0.1272435  )
        62           C   tau(  62) = (  0.1243917  0.6242666  0.1248712  )
        63           N   tau(  63) = (  0.6363568  0.3636432  0.3636432  )

     number of k points=     2
                       cart. coord. in units 2pi/alat
        k(    1) = (   0.2500000   0.2500000   0.2500000), wk =   0.7500000
        k(    2) = (  -0.2500000   0.2500000   0.2500000), wk =   0.2500000

                       cryst. coord.
        k(    1) = (   0.2500000   0.2500000   0.2500000), wk =   0.7500000
        k(    2) = (  -0.2500000   0.2500000   0.2500000), wk =   0.2500000

     Dense  grid:   194039 G-vectors     FFT dimensions: (  72,  72,  72)

     Occupations read from input 

      Spin-up

        1.0000   1.0000   1.0000   1.0000   1.0000   1.0000   1.0000   1.0000
        1.0000   1.0000   1.0000   1.0000   1.0000   1.0000   1.0000   1.0000
        1.0000   1.0000   1.0000   1.0000   1.0000   1.0000   1.0000   1.0000
        1.0000   1.0000   1.0000   1.0000   1.0000   1.0000   1.0000   1.0000
        1.0000   1.0000   1.0000   1.0000   1.0000   1.0000   1.0000   1.0000
        1.0000   1.0000   1.0000   1.0000   1.0000   1.0000   1.0000   1.0000
        1.0000   1.0000   1.0000   1.0000   1.0000   1.0000   1.0000   1.0000
        1.0000   1.0000   1.0000   1.0000   1.0000   1.0000   1.0000   1.0000
        1.0000   1.0000   1.0000   1.0000   1.0000   1.0000   1.0000   1.0000
        1.0000   1.0000   1.0000   1.0000   1.0000   1.0000   1.0000   1.0000
        1.0000   1.0000   1.0000   1.0000   1.0000   1.0000   1.0000   1.0000
        1.0000   1.0000   1.0000   1.0000   1.0000   1.0000   1.0000   1.0000
        1.0000   1.0000   1.0000   1.0000   1.0000   1.0000   1.0000   1.0000
        1.0000   1.0000   1.0000   1.0000   1.0000   1.0000   1.0000   1.0000
        1.0000   1.0000   1.0000   1.0000   1.0000   1.0000   1.0000   1.0000
        1.0000   1.0000   1.0000   1.0000   1.0000   1.0000   1.0000   1.0000
        0.0000   0.0000   0.0000   0.0000   0.0000   0.0000   0.0000   0.0000
        0.0000   0.0000   0.0000   0.0000   0.0000   0.0000   0.0000   0.0000
        0.0000   0.0000   0.0000   0.0000   0.0000   0.0000   0.0000   0.0000

      Spin-down

        1.0000   1.0000   1.0000   1.0000   1.0000   1.0000   1.0000   1.0000
        1.0000   1.0000   1.0000   1.0000   1.0000   1.0000   1.0000   1.0000
        1.0000   1.0000   1.0000   1.0000   1.0000   1.0000   1.0000   1.0000
        1.0000   1.0000   1.0000   1.0000   1.0000   1.0000   1.0000   1.0000
        1.0000   1.0000   1.0000   1.0000   1.0000   1.0000   1.0000   1.0000
        1.0000   1.0000   1.0000   1.0000   1.0000   1.0000   1.0000   1.0000
        1.0000   1.0000   1.0000   1.0000   1.0000   1.0000   1.0000   1.0000
        1.0000   1.0000   1.0000   1.0000   1.0000   1.0000   1.0000   1.0000
        1.0000   1.0000   1.0000   1.0000   1.0000   1.0000   1.0000   1.0000
        1.0000   1.0000   1.0000   1.0000   1.0000   1.0000   1.0000   1.0000
        1.0000   1.0000   1.0000   1.0000   1.0000   1.0000   1.0000   1.0000
        1.0000   1.0000   1.0000   1.0000   1.0000   1.0000   1.0000   1.0000
        1.0000   1.0000   1.0000   1.0000   1.0000   1.0000   1.0000   1.0000
        1.0000   1.0000   1.0000   1.0000   1.0000   1.0000   1.0000   1.0000
        1.0000   1.0000   1.0000   1.0000   1.0000   1.0000   1.0000   1.0000
        1.0000   1.0000   1.0000   1.0000   1.0000   0.0000   1.0000   0.0000
        0.0000   0.0000   0.0000   0.0000   0.0000   0.0000   0.0000   0.0000
        0.0000   0.0000   0.0000   0.0000   0.0000   0.0000   0.0000   0.0000
        0.0000   0.0000   0.0000   0.0000   0.0000   0.0000   0.0000   0.0000

     Estimated max dynamical RAM per process >      51.77MB

     Estimated total allocated dynamical RAM >    1656.77MB
     Generating pointlists ...
     new r_m :   0.0853 (alat units)  1.1501 (a.u.) for type    1
     new r_m :   0.0853 (alat units)  1.1501 (a.u.) for type    2

     Initial potential from superposition of free atoms

     starting charge  252.99722, renormalised to  254.00000
     Starting wfc are  252 randomized atomic wfcs

     total cpu time spent up to now is        2.2 secs

     per-process dynamical memory:    58.7 Mb

     Self-consistent Calculation

     iteration #  1     ecut=    70.00 Ry     beta=0.70
     Davidson diagonalization with overlap
     ethr =  1.00E-02,  avg # of iterations =  3.0

     total cpu time spent up to now is        4.6 secs

     total energy              =    -723.62212776 Ry
     Harris-Foulkes estimate   =    -725.46182507 Ry
     estimated scf accuracy    <       4.47099341 Ry

     total magnetization       =     2.00 Bohr mag/cell
     absolute magnetization    =     3.00 Bohr mag/cell

     iteration #  2     ecut=    70.00 Ry     beta=0.70
     Davidson diagonalization with overlap
     ethr =  1.76E-03,  avg # of iterations =  5.2

     total cpu time spent up to now is        8.1 secs

     total energy              =    -722.53324774 Ry
     Harris-Foulkes estimate   =    -725.30493567 Ry
     estimated scf accuracy    <       6.20949875 Ry

     total magnetization       =     2.00 Bohr mag/cell
     absolute magnetization    =     2.10 Bohr mag/cell

     iteration #  3     ecut=    70.00 Ry     beta=0.70
     Davidson diagonalization with overlap
     ethr =  1.76E-03,  avg # of iterations =  6.0

     total cpu time spent up to now is       11.0 secs

     total energy              =    -724.37367015 Ry
     Harris-Foulkes estimate   =    -725.01378478 Ry
     estimated scf accuracy    <       1.90354279 Ry

     total magnetization       =     2.00 Bohr mag/cell
     absolute magnetization    =     2.33 Bohr mag/cell

     iteration #  4     ecut=    70.00 Ry     beta=0.70
     Davidson diagonalization with overlap
     ethr =  7.49E-04,  avg # of iterations =  5.2

     total cpu time spent up to now is       13.6 secs

     total energy              =    -724.62697188 Ry
     Harris-Foulkes estimate   =    -724.69310942 Ry
     estimated scf accuracy    <       0.19140655 Ry

     total magnetization       =     2.00 Bohr mag/cell
     absolute magnetization    =     2.27 Bohr mag/cell

     iteration #  5     ecut=    70.00 Ry     beta=0.70
     Davidson diagonalization with overlap
     ethr =  7.54E-05,  avg # of iterations =  8.0

     total cpu time spent up to now is       17.5 secs

     total energy              =    -724.67004399 Ry
     Harris-Foulkes estimate   =    -724.66841037 Ry
     estimated scf accuracy    <       0.02712539 Ry

     total magnetization       =     2.00 Bohr mag/cell
     absolute magnetization    =     2.24 Bohr mag/cell

     iteration #  6     ecut=    70.00 Ry     beta=0.70
     Davidson diagonalization with overlap
     ethr =  1.07E-05,  avg # of iterations = 11.0

     total cpu time spent up to now is       22.9 secs

     total energy              =    -724.68045977 Ry
     Harris-Foulkes estimate   =    -724.67917225 Ry
     estimated scf accuracy    <       0.00688040 Ry

     total magnetization       =     2.00 Bohr mag/cell
     absolute magnetization    =     2.23 Bohr mag/cell

     iteration #  7     ecut=    70.00 Ry     beta=0.70
     Davidson diagonalization with overlap
     ethr =  2.71E-06,  avg # of iterations =  7.5

     total cpu time spent up to now is       27.0 secs

     total energy              =    -724.68159014 Ry
     Harris-Foulkes estimate   =    -724.68293295 Ry
     estimated scf accuracy    <       0.00565322 Ry

     total magnetization       =     2.00 Bohr mag/cell
     absolute magnetization    =     2.21 Bohr mag/cell

     iteration #  8     ecut=    70.00 Ry     beta=0.70
     Davidson diagonalization with overlap
     ethr =  2.23E-06,  avg # of iterations =  7.0

     total cpu time spent up to now is       30.2 secs

     total energy              =    -724.68212271 Ry
     Harris-Foulkes estimate   =    -724.68262889 Ry
     estimated scf accuracy    <       0.00154597 Ry

     total magnetization       =     2.00 Bohr mag/cell
     absolute magnetization    =     2.21 Bohr mag/cell

     iteration #  9     ecut=    70.00 Ry     beta=0.70
     Davidson diagonalization with overlap
     ethr =  6.09E-07,  avg # of iterations =  3.8

     total cpu time spent up to now is       32.2 secs

     total energy              =    -724.68244142 Ry
     Harris-Foulkes estimate   =    -724.68242159 Ry
     estimated scf accuracy    <       0.00011100 Ry

     total magnetization       =     2.00 Bohr mag/cell
     absolute magnetization    =     2.21 Bohr mag/cell

     iteration # 10     ecut=    70.00 Ry     beta=0.70
     Davidson diagonalization with overlap
     ethr =  4.37E-08,  avg # of iterations =  4.0

     total cpu time spent up to now is       34.8 secs

     total energy              =    -724.68248602 Ry
     Harris-Foulkes estimate   =    -724.68249627 Ry
     estimated scf accuracy    <       0.00003457 Ry

     total magnetization       =     2.00 Bohr mag/cell
     absolute magnetization    =     2.20 Bohr mag/cell

     iteration # 11     ecut=    70.00 Ry     beta=0.70
     Davidson diagonalization with overlap
     ethr =  1.36E-08,  avg # of iterations =  3.5

     total cpu time spent up to now is       37.0 secs

     total energy              =    -724.68249486 Ry
     Harris-Foulkes estimate   =    -724.68249461 Ry
     estimated scf accuracy    <       0.00000288 Ry

     total magnetization       =     2.00 Bohr mag/cell
     absolute magnetization    =     2.20 Bohr mag/cell

     iteration # 12     ecut=    70.00 Ry     beta=0.70
     Davidson diagonalization with overlap
     ethr =  1.13E-09,  avg # of iterations =  4.0

     total cpu time spent up to now is       39.6 secs

     total energy              =    -724.68249633 Ry
     Harris-Foulkes estimate   =    -724.68249639 Ry
     estimated scf accuracy    <       0.00000052 Ry

     total magnetization       =     2.00 Bohr mag/cell
     absolute magnetization    =     2.20 Bohr mag/cell

     iteration # 13     ecut=    70.00 Ry     beta=0.70
     Davidson diagonalization with overlap
     ethr =  2.05E-10,  avg # of iterations =  3.0

     total cpu time spent up to now is       41.8 secs

     total energy              =    -724.68249656 Ry
     Harris-Foulkes estimate   =    -724.68249653 Ry
     estimated scf accuracy    <       0.00000005 Ry

     total magnetization       =     2.00 Bohr mag/cell
     absolute magnetization    =     2.20 Bohr mag/cell

     iteration # 14     ecut=    70.00 Ry     beta=0.70
     Davidson diagonalization with overlap
     ethr =  1.77E-11,  avg # of iterations =  3.0

     total cpu time spent up to now is       44.3 secs

     total energy              =    -724.68249659 Ry
     Harris-Foulkes estimate   =    -724.68249658 Ry
     estimated scf accuracy    <       0.00000001 Ry

     total magnetization       =     2.00 Bohr mag/cell
     absolute magnetization    =     2.20 Bohr mag/cell

     iteration # 15     ecut=    70.00 Ry     beta=0.70
     Davidson diagonalization with overlap
     ethr =  4.00E-12,  avg # of iterations =  3.0
 
     Magnetic moment per site:
     atom:    1    charge:    1.8123    magn:   -0.0000    constr:    0.0000
     atom:    2    charge:    1.8163    magn:   -0.0010    constr:    0.0000
     atom:    3    charge:    1.8204    magn:   -0.0013    constr:    0.0000
     atom:    4    charge:    1.8153    magn:   -0.0015    constr:    0.0000
     atom:    5    charge:    1.8163    magn:   -0.0010    constr:    0.0000
     atom:    6    charge:    1.7975    magn:   -0.0002    constr:    0.0000
     atom:    7    charge:    1.8181    magn:   -0.0025    constr:    0.0000
     atom:    8    charge:    1.8094    magn:   -0.0014    constr:    0.0000
     atom:    9    charge:    1.8204    magn:   -0.0013    constr:    0.0000
     atom:   10    charge:    1.8181    magn:   -0.0025    constr:    0.0000
     atom:   11    charge:    1.8204    magn:   -0.0013    constr:    0.0000
     atom:   12    charge:    1.8181    magn:   -0.0025    constr:    0.0000
     atom:   13    charge:    1.8153    magn:   -0.0015    constr:    0.0000
     atom:   14    charge:    1.8094    magn:   -0.0014    constr:    0.0000
     atom:   15    charge:    1.8181    magn:   -0.0025    constr:    0.0000
     atom:   16    charge:    1.8237    magn:    0.0013    constr:    0.0000
     atom:   17    charge:    1.8163    magn:   -0.0010    constr:    0.0000
     atom:   18    charge:    1.7975    magn:   -0.0002    constr:    0.0000
     atom:   19    charge:    1.8181    magn:   -0.0025    constr:    0.0000
     atom:   20    charge:    1.8094    magn:   -0.0014    constr:    0.0000
     atom:   21    charge:    1.7975    magn:   -0.0002    constr:    0.0000
     atom:   22    charge:    1.8237    magn:    0.0013    constr:    0.0000
     atom:   23    charge:    1.8312    magn:    0.0077    constr:    0.0000
     atom:   24    charge:    1.8181    magn:   -0.0025    constr:    0.0000
     atom:   25    charge:    1.8237    magn:    0.0013    constr:    0.0000
     atom:   26    charge:    1.8153    magn:   -0.0015    constr:    0.0000
     atom:   27    charge:    1.8094    magn:   -0.0014    constr:    0.0000
     atom:   28    charge:    1.8094    magn:   -0.0014    constr:    0.0000
     atom:   29    charge:    1.8312    magn:    0.0077    constr:    0.0000
     atom:   30    charge:    1.8094    magn:   -0.0014    constr:    0.0000
     atom:   31    charge:    1.8312    magn:    0.0077    constr:    0.0000
     atom:   32    charge:    1.8183    magn:    0.0039    constr:    0.0000
     atom:   33    charge:    1.8253    magn:    0.0096    constr:    0.0000
     atom:   34    charge:    1.8112    magn:    0.0044    constr:    0.0000
     atom:   35    charge:    1.8153    magn:    0.0166    constr:    0.0000
     atom:   36    charge:    1.8171    magn:    0.0067    constr:    0.0000
     atom:   37    charge:    1.8112    magn:    0.0044    constr:    0.0000
     atom:   38    charge:    1.8171    magn:    0.0067    constr:    0.0000
     atom:   39    charge:    1.8112    magn:    0.0044    constr:    0.0000
     atom:   40    charge:    1.8158    magn:    0.0058    constr:    0.0000
     atom:   41    charge:    1.8153    magn:    0.0166    constr:    0.0000
     atom:   42    charge:    1.8112    magn:    0.0044    constr:    0.0000
     atom:   43    charge:    1.8283    magn:    0.2021    constr:    0.0000
     atom:   44    charge:    1.8168    magn:    0.0048    constr:    0.0000
     atom:   45    charge:    1.8183    magn:    0.0039    constr:    0.0000
     atom:   46    charge:    1.8171    magn:    0.0067    constr:    0.0000
     atom:   47    charge:    1.8158    magn:    0.0058    constr:    0.0000
     atom:   48    charge:    1.8253    magn:    0.0096    constr:    0.0000
     atom:   49    charge:    1.8283    magn:    0.2021    constr:    0.0000
     atom:   50    charge:    1.8146    magn:    0.0161    constr:    0.0000
     atom:   51    charge:    1.8112    magn:    0.0044    constr:    0.0000
     atom:   52    charge:    1.8283    magn:    0.2021    constr:    0.0000
     atom:   53    charge:    1.8158    magn:    0.0058    constr:    0.0000
     atom:   54    charge:    1.8153    magn:    0.0166    constr:    0.0000
     atom:   55    charge:    1.8153    magn:    0.0166    constr:    0.0000
     atom:   56    charge:    1.8146    magn:    0.0161    constr:    0.0000
     atom:   57    charge:    1.8153    magn:    0.0166    constr:    0.0000
     atom:   58    charge:    1.8146    magn:    0.0161    constr:    0.0000
     atom:   59    charge:    1.8183    magn:    0.0039    constr:    0.0000
     atom:   60    charge:    1.8253    magn:    0.0096    constr:    0.0000
     atom:   61    charge:    1.8112    magn:    0.0044    constr:    0.0000
     atom:   62    charge:    1.8153    magn:    0.0166    constr:    0.0000
     atom:   63    charge:    2.8846    magn:    0.1337    constr:    0.0000

     total cpu time spent up to now is       46.8 secs

     End of self-consistent calculation

 ------ SPIN UP ------------


          k = 0.2500 0.2500 0.2500 ( 24252 PWs)   bands (ev):

    -8.3234  -7.5010  -6.9243  -6.7623  -6.2214  -5.7939  -5.6140  -5.1765
    -4.7036  -4.6963  -4.5183  -4.0607  -3.7341  -3.6714  -3.6244  -3.4778
    -3.2821  -2.9665  -2.7336  -2.4236  -2.1007  -1.7845  -1.7524  -1.5281
    -1.4835  -1.2394  -1.0456  -0.8411  -0.7475  -0.7462  -0.5843   0.0522
     0.4398   0.4586   0.6501   1.1886   1.3820   1.5749   1.6015   1.7436
     1.7706   1.8275   1.9506   2.0507   2.1906   2.3331   2.3896   2.9310
     2.9468   2.9894   3.1043   3.2321   3.3995   4.1988   4.3413   4.3707
     4.5674   4.6140   4.6574   4.7840   5.0356   5.0486   5.1756   5.2078
     5.3513   5.4001   5.4415   5.4964   5.6603   5.6975   5.8162   6.2029
     6.3103   6.4279   6.5397   6.5731   6.5850   6.6136   6.6321   6.6864
     6.8651   6.8807   6.9531   6.9838   7.2819   7.3072   7.4691   7.6305
     7.7301   7.7774   7.8913   7.9571   8.0327   8.1204   8.3003   8.3577
     8.5139   8.5751   8.6018   8.6427   8.7142   8.7212   8.7834   8.7971
     8.8835   8.9130   8.9580   9.0799   9.1235   9.4087   9.6350   9.8079
     9.9413   9.9989  10.2084  10.2347  10.2617  10.6884  10.7505  10.8587
    10.9041  11.0507  11.1864  11.9298  11.9890  13.1761  14.4412  14.8500
    17.8048  17.9588  18.0086  18.1938  18.2812  18.3614  18.7573  18.8242
    19.0601  19.4501  19.4615  19.6749  19.8374  19.8561  19.8865  19.9759
    20.0851  20.1559  20.2968  20.3084  20.4698  20.5218  20.5794  20.5992

     occupation numbers 
     1.0000   1.0000   1.0000   1.0000   1.0000   1.0000   1.0000   1.0000
     1.0000   1.0000   1.0000   1.0000   1.0000   1.0000   1.0000   1.0000
     1.0000   1.0000   1.0000   1.0000   1.0000   1.0000   1.0000   1.0000
     1.0000   1.0000   1.0000   1.0000   1.0000   1.0000   1.0000   1.0000
     1.0000   1.0000   1.0000   1.0000   1.0000   1.0000   1.0000   1.0000
     1.0000   1.0000   1.0000   1.0000   1.0000   1.0000   1.0000   1.0000
     1.0000   1.0000   1.0000   1.0000   1.0000   1.0000   1.0000   1.0000
     1.0000   1.0000   1.0000   1.0000   1.0000   1.0000   1.0000   1.0000
     1.0000   1.0000   1.0000   1.0000   1.0000   1.0000   1.0000   1.0000
     1.0000   1.0000   1.0000   1.0000   1.0000   1.0000   1.0000   1.0000
     1.0000   1.0000   1.0000   1.0000   1.0000   1.0000   1.0000   1.0000
     1.0000   1.0000   1.0000   1.0000   1.0000   1.0000   1.0000   1.0000
     1.0000   1.0000   1.0000   1.0000   1.0000   1.0000   1.0000   1.0000
     1.0000   1.0000   1.0000   1.0000   1.0000   1.0000   1.0000   1.0000
     1.0000   1.0000   1.0000   1.0000   1.0000   1.0000   1.0000   1.0000
     1.0000   1.0000   1.0000   1.0000   1.0000   1.0000   1.0000   1.0000
     0.0000   0.0000   0.0000   0.0000   0.0000   0.0000   0.0000   0.0000
     0.0000   0.0000   0.0000   0.0000   0.0000   0.0000   0.0000   0.0000
     0.0000   0.0000   0.0000   0.0000   0.0000   0.0000   0.0000   0.0000

          k =-0.2500 0.2500 0.2500 ( 24252 PWs)   bands (ev):

    -8.3393  -7.3857  -6.9235  -6.9235  -6.1466  -5.7986  -5.7985  -4.9875
    -4.6910  -4.6910  -4.4138  -3.7837  -3.6810  -3.6810  -3.6418  -3.6418
    -3.5794  -3.0233  -2.7095  -2.7095  -1.8141  -1.7876  -1.7876  -1.4965
    -1.4965  -1.2768  -0.8263  -0.8263  -0.6854  -0.6639  -0.6639  -0.1971
     0.4618   0.4618   0.7373   1.3459   1.3459   1.3931   1.6960   1.6960
     1.8115   1.8667   1.8667   1.9783   2.3194   2.3861   2.3861   2.6447
     3.0741   3.0741   3.1158   3.2344   3.2344   4.2136   4.4362   4.4362
     4.5217   4.6734   4.6734   4.7464   5.0797   5.1342   5.1342   5.2260
     5.2260   5.3407   5.4070   5.4070   5.6887   5.6887   5.7276   6.3306
     6.4135   6.4135   6.5663   6.5983   6.5983   6.6132   6.6132   6.7255
     6.8017   6.8017   6.8217   7.0919   7.1618   7.1619   7.4642   7.7293
     7.8022   7.8022   7.8592   7.8592   8.1086   8.3653   8.3944   8.3944
     8.5367   8.5367   8.6715   8.6715   8.7183   8.7273   8.7696   8.7696
     8.8490   8.8962   8.8962   9.1206   9.1206   9.5222   9.5805   9.5805
     9.7879  10.1018  10.2450  10.2450  10.3200  10.7238  10.7238  10.9073
    10.9073  11.1278  11.3236  11.9195  11.9195  12.5439  14.8708  14.8708
    17.8578  17.9444  17.9444  18.1155  18.2374  18.2374  18.8202  18.8202
    18.8585  19.4325  19.4325  19.7553  19.8596  19.8596  20.0555  20.0985
    20.0985  20.1617  20.4200  20.4841  20.4842  20.5373  20.5373  20.5945

     occupation numbers 
     1.0000   1.0000   1.0000   1.0000   1.0000   1.0000   1.0000   1.0000
     1.0000   1.0000   1.0000   1.0000   1.0000   1.0000   1.0000   1.0000
     1.0000   1.0000   1.0000   1.0000   1.0000   1.0000   1.0000   1.0000
     1.0000   1.0000   1.0000   1.0000   1.0000   1.0000   1.0000   1.0000
     1.0000   1.0000   1.0000   1.0000   1.0000   1.0000   1.0000   1.0000
     1.0000   1.0000   1.0000   1.0000   1.0000   1.0000   1.0000   1.0000
     1.0000   1.0000   1.0000   1.0000   1.0000   1.0000   1.0000   1.0000
     1.0000   1.0000   1.0000   1.0000   1.0000   1.0000   1.0000   1.0000
     1.0000   1.0000   1.0000   1.0000   1.0000   1.0000   1.0000   1.0000
     1.0000   1.0000   1.0000   1.0000   1.0000   1.0000   1.0000   1.0000
     1.0000   1.0000   1.0000   1.0000   1.0000   1.0000   1.0000   1.0000
     1.0000   1.0000   1.0000   1.0000   1.0000   1.0000   1.0000   1.0000
     1.0000   1.0000   1.0000   1.0000   1.0000   1.0000   1.0000   1.0000
     1.0000   1.0000   1.0000   1.0000   1.0000   1.0000   1.0000   1.0000
     1.0000   1.0000   1.0000   1.0000   1.0000   1.0000   1.0000   1.0000
     1.0000   1.0000   1.0000   1.0000   1.0000   1.0000   1.0000   1.0000
     0.0000   0.0000   0.0000   0.0000   0.0000   0.0000   0.0000   0.0000
     0.0000   0.0000   0.0000   0.0000   0.0000   0.0000   0.0000   0.0000
     0.0000   0.0000   0.0000   0.0000   0.0000   0.0000   0.0000   0.0000

 ------ SPIN DOWN ----------


          k = 0.2500 0.2500 0.2500 ( 24252 PWs)   bands (ev):

    -8.2701  -7.4482  -6.9001  -6.7317  -6.1835  -5.7669  -5.5724  -5.1399
    -4.6734  -4.6665  -4.4962  -4.0100  -3.7145  -3.6453  -3.6067  -3.4424
    -3.2475  -2.9370  -2.6931  -2.3560  -2.0713  -1.7542  -1.7260  -1.4841
    -1.4580  -1.1998  -0.9902  -0.8228  -0.7258  -0.7216  -0.5220   0.1300
     0.4727   0.4870   0.7027   1.2155   1.4071   1.6126   1.6242   1.7852
     1.7899   1.8704   1.9802   2.0910   2.2180   2.3779   2.4417   2.9661
     2.9886   3.0403   3.1331   3.2728   3.4633   4.2807   4.3629   4.4102
     4.5984   4.6434   4.6768   4.8361   5.0658   5.0824   5.2071   5.2415
     5.3786   5.4195   5.4784   5.5402   5.6958   5.7306   5.8819   6.2342
     6.3324   6.4809   6.5629   6.5953   6.5998   6.6419   6.6512   6.7120
     6.9041   6.9121   7.0091   7.0121   7.3501   7.3542   7.5371   7.6625
     7.7637   7.8130   7.9334   7.9888   8.0549   8.1745   8.3333   8.4017
     8.5401   8.5975   8.6446   8.6678   8.7373   8.7458   8.8151   8.8173
     8.9242   8.9455   9.0048   9.1171   9.1582   9.4418   9.7214   9.8606
    10.0292  10.1079  10.2729  10.2789  10.3190  10.7517  10.7970  10.8955
    10.9310  11.0768  11.5044  12.0460  12.1127  14.0505  15.5658  16.0082
    17.8354  17.9838  18.0347  18.2227  18.3092  18.4137  18.7827  18.8432
    19.1135  19.4886  19.4992  19.7115  19.8608  19.8748  19.9175  20.0086
    20.1266  20.2097  20.3230  20.3445  20.4912  20.5381  20.6004  20.6271

     occupation numbers 
     1.0000   1.0000   1.0000   1.0000   1.0000   1.0000   1.0000   1.0000
     1.0000   1.0000   1.0000   1.0000   1.0000   1.0000   1.0000   1.0000
     1.0000   1.0000   1.0000   1.0000   1.0000   1.0000   1.0000   1.0000
     1.0000   1.0000   1.0000   1.0000   1.0000   1.0000   1.0000   1.0000
     1.0000   1.0000   1.0000   1.0000   1.0000   1.0000   1.0000   1.0000
     1.0000   1.0000   1.0000   1.0000   1.0000   1.0000   1.0000   1.0000
     1.0000   1.0000   1.0000   1.0000   1.0000   1.0000   1.0000   1.0000
     1.0000   1.0000   1.0000   1.0000   1.0000   1.0000   1.0000   1.0000
     1.0000   1.0000   1.0000   1.0000   1.0000   1.0000   1.0000   1.0000
     1.0000   1.0000   1.0000   1.0000   1.0000   1.0000   1.0000   1.0000
     1.0000   1.0000   1.0000   1.0000   1.0000   1.0000   1.0000   1.0000
     1.0000   1.0000   1.0000   1.0000   1.0000   1.0000   1.0000   1.0000
     1.0000   1.0000   1.0000   1.0000   1.0000   1.0000   1.0000   1.0000
     1.0000   1.0000   1.0000   1.0000   1.0000   1.0000   1.0000   1.0000
     1.0000   1.0000   1.0000   1.0000   1.0000   1.0000   1.0000   1.0000
     1.0000   1.0000   1.0000   1.0000   1.0000   0.0000   1.0000   0.0000
     0.0000   0.0000   0.0000   0.0000   0.0000   0.0000   0.0000   0.0000
     0.0000   0.0000   0.0000   0.0000   0.0000   0.0000   0.0000   0.0000
     0.0000   0.0000   0.0000   0.0000   0.0000   0.0000   0.0000   0.0000

          k =-0.2500 0.2500 0.2500 ( 24252 PWs)   bands (ev):

    -8.2867  -7.3243  -6.8992  -6.8992  -6.1034  -5.7726  -5.7726  -4.9411
    -4.6660  -4.6659  -4.3825  -3.7183  -3.6637  -3.6637  -3.6002  -3.6002
    -3.5607  -2.9961  -2.6664  -2.6663  -1.7739  -1.7592  -1.7592  -1.4723
    -1.4723  -1.2456  -0.8105  -0.8105  -0.6647  -0.5912  -0.5912  -0.1102
     0.4914   0.4914   0.8051   1.3714   1.3714   1.4463   1.7205   1.7205
     1.8261   1.8958   1.8958   2.0173   2.3556   2.4400   2.4400   2.6915
     3.1006   3.1006   3.1322   3.2966   3.2966   4.2908   4.4754   4.4754
     4.5371   4.6979   4.6979   4.8189   5.1045   5.1643   5.1643   5.2540
     5.2540   5.3838   5.4363   5.4363   5.7183   5.7183   5.7845   6.3931
     6.4547   6.4547   6.5771   6.6245   6.6245   6.6393   6.6393   6.7384
     6.8322   6.8322   6.9058   7.1187   7.2037   7.2037   7.5384   7.7687
     7.8286   7.8286   7.8941   7.8941   8.1277   8.4339   8.4339   8.4637
     8.5606   8.5606   8.6957   8.6957   8.7331   8.7424   8.7891   8.7891
     8.8692   8.9419   8.9419   9.1686   9.1686   9.5557   9.6416   9.6416
     9.9245  10.1277  10.2747  10.2747  10.4508  10.7714  10.7714  10.9363
    10.9363  11.1518  11.7209  11.9819  11.9820  13.5160  16.0231  16.0231
    17.9196  17.9720  17.9720  18.1466  18.2688  18.2688  18.8399  18.8399
    18.8950  19.4665  19.4665  19.7873  19.8824  19.8824  20.0839  20.1397
    20.1397  20.2187  20.4334  20.5045  20.5045  20.5542  20.5543  20.6283

     occupation numbers 
     1.0000   1.0000   1.0000   1.0000   1.0000   1.0000   1.0000   1.0000
     1.0000   1.0000   1.0000   1.0000   1.0000   1.0000   1.0000   1.0000
     1.0000   1.0000   1.0000   1.0000   1.0000   1.0000   1.0000   1.0000
     1.0000   1.0000   1.0000   1.0000   1.0000   1.0000   1.0000   1.0000
     1.0000   1.0000   1.0000   1.0000   1.0000   1.0000   1.0000   1.0000
     1.0000   1.0000   1.0000   1.0000   1.0000   1.0000   1.0000   1.0000
     1.0000   1.0000   1.0000   1.0000   1.0000   1.0000   1.0000   1.0000
     1.0000   1.0000   1.0000   1.0000   1.0000   1.0000   1.0000   1.0000
     1.0000   1.0000   1.0000   1.0000   1.0000   1.0000   1.0000   1.0000
     1.0000   1.0000   1.0000   1.0000   1.0000   1.0000   1.0000   1.0000
     1.0000   1.0000   1.0000   1.0000   1.0000   1.0000   1.0000   1.0000
     1.0000   1.0000   1.0000   1.0000   1.0000   1.0000   1.0000   1.0000
     1.0000   1.0000   1.0000   1.0000   1.0000   1.0000   1.0000   1.0000
     1.0000   1.0000   1.0000   1.0000   1.0000   1.0000   1.0000   1.0000
     1.0000   1.0000   1.0000   1.0000   1.0000   1.0000   1.0000   1.0000
     1.0000   1.0000   1.0000   1.0000   1.0000   0.0000   1.0000   0.0000
     0.0000   0.0000   0.0000   0.0000   0.0000   0.0000   0.0000   0.0000
     0.0000   0.0000   0.0000   0.0000   0.0000   0.0000   0.0000   0.0000
     0.0000   0.0000   0.0000   0.0000   0.0000   0.0000   0.0000   0.0000

     highest occupied, lowest unoccupied level (ev):    14.8708   13.5160

!    total energy              =    -724.68249660 Ry
     Harris-Foulkes estimate   =    -724.68249659 Ry
     estimated scf accuracy    <          3.0E-09 Ry

     The total energy is the sum of the following terms:

     one-electron contribution =     233.36978415 Ry
     hartree contribution      =      68.98012655 Ry
     xc contribution           =    -226.37825142 Ry
     ewald contribution        =    -800.65415587 Ry

     total magnetization       =     2.00 Bohr mag/cell
     absolute magnetization    =     2.20 Bohr mag/cell

     convergence has been achieved in  15 iterations

     Forces acting on atoms (cartesian axes, Ry/au):

     atom    1 type  1   force =     0.00010696   -0.00010696   -0.00010696
     atom    2 type  1   force =    -0.00058807    0.00058807   -0.00069097
     atom    3 type  1   force =     0.00054194   -0.00054194   -0.00080927
     atom    4 type  1   force =     0.00097584   -0.00097584    0.00161116
     atom    5 type  1   force =     0.00069097    0.00058807    0.00058807
     atom    6 type  1   force =     0.00070393    0.01675311   -0.00070393
     atom    7 type  1   force =    -0.01021678   -0.00569456    0.00521521
     atom    8 type  1   force =     0.00112304   -0.00065818   -0.00017610
     atom    9 type  1   force =     0.00080927   -0.00054194   -0.00054194
     atom   10 type  1   force =    -0.00521521   -0.00569456    0.01021678
     atom   11 type  1   force =     0.00054194   -0.00080927   -0.00054194
     atom   12 type  1   force =     0.00569456    0.00521521    0.01021678
     atom   13 type  1   force =    -0.00161116   -0.00097584   -0.00097584
     atom   14 type  1   force =     0.00017610   -0.00065818   -0.00112304
     atom   15 type  1   force =    -0.01021678    0.00521521   -0.00569456
     atom   16 type  1   force =     0.00813251    0.01059752   -0.00813251
     atom   17 type  1   force =    -0.00058807   -0.00069097    0.00058807
     atom   18 type  1   force =    -0.01675311   -0.00070393   -0.00070393
     atom   19 type  1   force =     0.00569456    0.01021678    0.00521521
     atom   20 type  1   force =     0.00065818   -0.00112304   -0.00017610
     atom   21 type  1   force =     0.00070393   -0.00070393    0.01675311
     atom   22 type  1   force =     0.00813251   -0.00813251    0.01059752
     atom   23 type  1   force =    -0.00141371    0.00141371    0.00615516
     atom   24 type  1   force =    -0.00521521    0.01021678   -0.00569456
     atom   25 type  1   force =    -0.01059752   -0.00813251   -0.00813251
     atom   26 type  1   force =     0.00097584    0.00161116   -0.00097584
     atom   27 type  1   force =     0.00065818   -0.00017610   -0.00112304
     atom   28 type  1   force =     0.00017610   -0.00112304   -0.00065818
     atom   29 type  1   force =    -0.00615516    0.00141371    0.00141371
     atom   30 type  1   force =     0.00112304   -0.00017610   -0.00065818
     atom   31 type  1   force =    -0.00141371    0.00615516    0.00141371
     atom   32 type  1   force =    -0.00046653   -0.00022489   -0.00022489
     atom   33 type  1   force =    -0.00174849   -0.00749366    0.00174849
     atom   34 type  1   force =    -0.00114235    0.00139680   -0.00187545
     atom   35 type  1   force =     0.00080882    0.00102967   -0.00409677
     atom   36 type  1   force =     0.00079266    0.00144968    0.00144968
     atom   37 type  1   force =     0.00187545    0.00139680    0.00114235
     atom   38 type  1   force =    -0.00144968   -0.00079266    0.00144968
     atom   39 type  1   force =    -0.00139680   -0.00187545    0.00114235
     atom   40 type  1   force =    -0.00109629    0.00025526    0.00025526
     atom   41 type  1   force =     0.00409677    0.00102967   -0.00080882
     atom   42 type  1   force =    -0.00114235   -0.00187545    0.00139680
     atom   43 type  1   force =    -0.00998404   -0.06211900    0.00998404
     atom   44 type  1   force =     0.00047793   -0.00047793   -0.00047793
     atom   45 type  1   force =     0.00022489   -0.00022489    0.00046653
     atom   46 type  1   force =    -0.00144968    0.00144968   -0.00079266
     atom   47 type  1   force =    -0.00025526    0.00025526    0.00109629
     atom   48 type  1   force =    -0.00174849    0.00174849   -0.00749366
     atom   49 type  1   force =    -0.00998404    0.00998404   -0.06211900
     atom   50 type  1   force =    -0.00155821    0.00155821   -0.00428159
     atom   51 type  1   force =     0.00187545    0.00114235    0.00139680
     atom   52 type  1   force =     0.06211900    0.00998404    0.00998404
     atom   53 type  1   force =    -0.00025526    0.00109629    0.00025526
     atom   54 type  1   force =    -0.00102967   -0.00409677   -0.00080882
     atom   55 type  1   force =     0.00409677   -0.00080882    0.00102967
     atom   56 type  1   force =     0.00428159    0.00155821    0.00155821
     atom   57 type  1   force =     0.00080882   -0.00409677    0.00102967
     atom   58 type  1   force =    -0.00155821   -0.00428159    0.00155821
     atom   59 type  1   force =     0.00022489    0.00046653   -0.00022489
     atom   60 type  1   force =     0.00749366    0.00174849    0.00174849
     atom   61 type  1   force =    -0.00139680    0.00114235   -0.00187545
     atom   62 type  1   force =    -0.00102967   -0.00080882   -0.00409677
     atom   63 type  2   force =    -0.01811977    0.01811977    0.01811977
     The non-local contrib.  to forces
     atom    1 type  1   force =    -0.00734693    0.00734693    0.00734693
     atom    2 type  1   force =     0.01315607   -0.01315607    0.02094081
     atom    3 type  1   force =     0.00572492   -0.00572492    0.02135522
     atom    4 type  1   force =    -0.01610564    0.01610564   -0.00370356
     atom    5 type  1   force =    -0.02094081   -0.01315607   -0.01315607
     atom    6 type  1   force =    -0.15506223   -0.14875448    0.15506223
     atom    7 type  1   force =     0.08244164    0.06255873   -0.09139118
     atom    8 type  1   force =    -0.00483880    0.02408339    0.00721007
     atom    9 type  1   force =    -0.02135522   -0.00572492   -0.00572492
     atom   10 type  1   force =     0.09139118    0.06255873   -0.08244164
     atom   11 type  1   force =     0.00572492    0.02135522   -0.00572492
     atom   12 type  1   force =    -0.06255873   -0.09139118   -0.08244164
     atom   13 type  1   force =     0.00370356    0.01610564    0.01610564
     atom   14 type  1   force =    -0.00721007    0.02408339    0.00483880
     atom   15 type  1   force =     0.08244164   -0.09139118    0.06255873
     atom   16 type  1   force =    -0.06732824    0.06739318    0.06732824
     atom   17 type  1   force =     0.01315607    0.02094081   -0.01315607
     atom   18 type  1   force =     0.14875448    0.15506223    0.15506223
     atom   19 type  1   force =    -0.06255873   -0.08244164   -0.09139118
     atom   20 type  1   force =    -0.02408339    0.00483880    0.00721007
     atom   21 type  1   force =    -0.15506223    0.15506223   -0.14875448
     atom   22 type  1   force =    -0.06732824    0.06732824    0.06739318
     atom   23 type  1   force =    -0.01868005    0.01868005   -0.02612097
     atom   24 type  1   force =     0.09139118   -0.08244164    0.06255873
     atom   25 type  1   force =    -0.06739318    0.06732824    0.06732824
     atom   26 type  1   force =    -0.01610564   -0.00370356    0.01610564
     atom   27 type  1   force =    -0.02408339    0.00721007    0.00483880
     atom   28 type  1   force =    -0.00721007    0.00483880    0.02408339
     atom   29 type  1   force =     0.02612097    0.01868005    0.01868005
     atom   30 type  1   force =    -0.00483880    0.00721007    0.02408339
     atom   31 type  1   force =    -0.01868005   -0.02612097    0.01868005
     atom   32 type  1   force =    -0.01539398   -0.00477159   -0.00477159
     atom   33 type  1   force =    -0.00993423   -0.03087382    0.00993423
     atom   34 type  1   force =     0.05431523   -0.03301332   -0.02562467
     atom   35 type  1   force =    -0.06401216    0.03786327   -0.02580840
     atom   36 type  1   force =    -0.05870272   -0.00591627   -0.00591627
     atom   37 type  1   force =     0.02562467   -0.03301332   -0.05431523
     atom   38 type  1   force =     0.00591627    0.05870272   -0.00591627
     atom   39 type  1   force =     0.03301332   -0.02562467   -0.05431523
     atom   40 type  1   force =    -0.05606435   -0.00604826   -0.00604826
     atom   41 type  1   force =     0.02580840    0.03786327    0.06401216
     atom   42 type  1   force =     0.05431523   -0.02562467   -0.03301332
     atom   43 type  1   force =    -0.31502568   -0.36554299    0.31502568
     atom   44 type  1   force =    -0.01198859    0.01198859    0.01198859
     atom   45 type  1   force =     0.00477159   -0.00477159    0.01539398
     atom   46 type  1   force =     0.00591627   -0.00591627    0.05870272
     atom   47 type  1   force =     0.00604826   -0.00604826    0.05606435
     atom   48 type  1   force =    -0.00993423    0.00993423   -0.03087382
     atom   49 type  1   force =    -0.31502568    0.31502568   -0.36554299
     atom   50 type  1   force =    -0.03076987    0.03076987   -0.07549241
     atom   51 type  1   force =     0.02562467   -0.05431523   -0.03301332
     atom   52 type  1   force =     0.36554299    0.31502568    0.31502568
     atom   53 type  1   force =     0.00604826    0.05606435   -0.00604826
     atom   54 type  1   force =    -0.03786327   -0.02580840    0.06401216
     atom   55 type  1   force =     0.02580840    0.06401216    0.03786327
     atom   56 type  1   force =     0.07549241    0.03076987    0.03076987
     atom   57 type  1   force =    -0.06401216   -0.02580840    0.03786327
     atom   58 type  1   force =    -0.03076987   -0.07549241    0.03076987
     atom   59 type  1   force =     0.00477159    0.01539398   -0.00477159
     atom   60 type  1   force =     0.03087382    0.00993423    0.00993423
     atom   61 type  1   force =     0.03301332   -0.05431523   -0.02562467
     atom   62 type  1   force =    -0.03786327    0.06401216   -0.02580840
     atom   63 type  2   force =     0.58474136   -0.58474136   -0.58474136
     The ionic contribution  to forces
     atom    1 type  1   force =     0.01708578   -0.01708604   -0.01708257
     atom    2 type  1   force =    -0.10539587    0.10539377   -0.29559997
     atom    3 type  1   force =    -0.10488289    0.10488427   -0.21939043
     atom    4 type  1   force =     0.12746306   -0.12746104   -0.02246890
     atom    5 type  1   force =     0.29560066    0.10539418    0.10539534
     atom    6 type  1   force =    -0.20211662    1.24426596    0.20211512
     atom    7 type  1   force =     0.20926211   -0.71365112    0.69791637
     atom    8 type  1   force =     0.13683960   -0.01192602    0.21115528
     atom    9 type  1   force =     0.21939207    0.10488345    0.10487834
     atom   10 type  1   force =    -0.69791952   -0.71364950   -0.20926237
     atom   11 type  1   force =    -0.10488493   -0.21939160    0.10488455
     atom   12 type  1   force =     0.71365312    0.69791375   -0.20926500
     atom   13 type  1   force =     0.02247095   -0.12746126   -0.12745922
     atom   14 type  1   force =    -0.21115599   -0.01192579   -0.13683786
     atom   15 type  1   force =     0.20926335    0.69791742   -0.71365342
     atom   16 type  1   force =     0.70755264    0.34397608   -0.70754868
     atom   17 type  1   force =    -0.10539656   -0.29560134    0.10539335
     atom   18 type  1   force =    -1.24426629    0.20211479    0.20211730
     atom   19 type  1   force =     0.71365375   -0.20926138    0.69791554
     atom   20 type  1   force =     0.01192497   -0.13683845    0.21115503
     atom   21 type  1   force =    -0.20211954    0.20211792    1.24426171
     atom   22 type  1   force =     0.70754942   -0.70754840    0.34397191
     atom   23 type  1   force =     0.07262409   -0.07262009    0.09774357
     atom   24 type  1   force =    -0.69791824   -0.20926278   -0.71364974
     atom   25 type  1   force =    -0.34397373   -0.70754836   -0.70754615
     atom   26 type  1   force =     0.12746512   -0.02247274   -0.12746551
     atom   27 type  1   force =     0.01192419    0.21115440   -0.13683534
     atom   28 type  1   force =    -0.21115627   -0.13683718   -0.01192604
     atom   29 type  1   force =    -0.09774354   -0.07261962   -0.07261747
     atom   30 type  1   force =     0.13684090    0.21115280   -0.01192285
     atom   31 type  1   force =     0.07262173    0.09774224   -0.07261749
     atom   32 type  1   force =     0.12639571    0.00788306    0.00788418
     atom   33 type  1   force =     0.16651468    0.11086150   -0.16651489
     atom   34 type  1   force =    -0.20839178    0.07196286    0.48616415
     atom   35 type  1   force =     0.08075590   -0.21644850    0.14860618
     atom   36 type  1   force =     0.63989799    0.23398836    0.23398902
     atom   37 type  1   force =    -0.48616429    0.07196259    0.20838994
     atom   38 type  1   force =    -0.23398930   -0.63989651    0.23398823
     atom   39 type  1   force =    -0.07196428    0.48616421    0.20839213
     atom   40 type  1   force =     0.60560296   -0.20157992   -0.20158010
     atom   41 type  1   force =    -0.14860718   -0.21644778   -0.08075540
     atom   42 type  1   force =    -0.20839474    0.48616299    0.07196283
     atom   43 type  1   force =     2.12417823    2.18564532   -2.12417627
     atom   44 type  1   force =     0.10634274   -0.10634469   -0.10634339
     atom   45 type  1   force =    -0.00788574    0.00788348   -0.12639586
     atom   46 type  1   force =    -0.23398863    0.23399012   -0.63989749
     atom   47 type  1   force =     0.20158202   -0.20157942   -0.60560189
     atom   48 type  1   force =     0.16651382   -0.16651464    0.11085913
     atom   49 type  1   force =     2.12417505   -2.12417588    2.18564301
     atom   50 type  1   force =     0.18448518   -0.18448151    0.01692770
     atom   51 type  1   force =    -0.48616715    0.20839145    0.07196327
     atom   52 type  1   force =    -2.18564595   -2.12417603   -2.12417694
     atom   53 type  1   force =     0.20158155   -0.60559647   -0.20158097
     atom   54 type  1   force =     0.21645119    0.14860259   -0.08075913
     atom   55 type  1   force =    -0.14860863   -0.08075333   -0.21645019
     atom   56 type  1   force =    -0.01692763   -0.18448319   -0.18448248
     atom   57 type  1   force =     0.08075613    0.14860511   -0.21644657
     atom   58 type  1   force =     0.18448126    0.01692732   -0.18448160
     atom   59 type  1   force =    -0.00788561   -0.12639441    0.00788395
     atom   60 type  1   force =    -0.11086157   -0.16651811   -0.16651561
     atom   61 type  1   force =    -0.07196508    0.20839328    0.48616473
     atom   62 type  1   force =     0.21645089   -0.08075645    0.14860703
     atom   63 type  2   force =    -2.98297525    2.98297426    2.98297890
     The local contribution  to forces
     atom    1 type  1   force =    -0.00962376    0.00962376    0.00962376
     atom    2 type  1   force =     0.09164319   -0.09164488    0.27397407
     atom    3 type  1   force =     0.09970351   -0.09970351    0.19720613
     atom    4 type  1   force =    -0.11038844    0.11039008    0.02778654
     atom    5 type  1   force =    -0.27397412   -0.09164486   -0.09164655
     atom    6 type  1   force =     0.35787776   -1.07877245   -0.35788116
     atom    7 type  1   force =    -0.30193470    0.64541034   -0.60129407
     atom    8 type  1   force =    -0.13087543   -0.01283130   -0.21854848
     atom    9 type  1   force =    -0.19720607   -0.09970347   -0.09970683
     atom   10 type  1   force =     0.60129197    0.64540984    0.30193165
     atom   11 type  1   force =     0.09970351    0.19720613   -0.09970351
     atom   12 type  1   force =    -0.64540991   -0.60129284    0.30193172
     atom   13 type  1   force =    -0.02778654    0.11039009    0.11039009
     atom   14 type  1   force =     0.21854685   -0.01283133    0.13087703
     atom   15 type  1   force =    -0.30193422   -0.60129196    0.64540665
     atom   16 type  1   force =    -0.63207606   -0.40076702    0.63207441
     atom   17 type  1   force =     0.09164318    0.27397410   -0.09164656
     atom   18 type  1   force =     1.07877262   -0.35788124   -0.35787954
     atom   19 type  1   force =    -0.64540872    0.30193468   -0.60129572
     atom   20 type  1   force =     0.01283134    0.13087708   -0.21855016
     atom   21 type  1   force =     0.35787800   -0.35787883   -1.07877487
     atom   22 type  1   force =    -0.63207679    0.63207845   -0.40077172
     atom   23 type  1   force =    -0.05535502    0.05535502   -0.06545807
     atom   24 type  1   force =     0.60129227    0.30193456    0.64541018
     atom   25 type  1   force =     0.40076599    0.63207796    0.63207796
     atom   26 type  1   force =    -0.11039006    0.02778655    0.11038679
     atom   27 type  1   force =     0.01283134   -0.21854851    0.13087706
     atom   28 type  1   force =     0.21854685    0.13087703   -0.01283133
     atom   29 type  1   force =     0.06545807    0.05535502    0.05535502
     atom   30 type  1   force =    -0.13087543   -0.21854848   -0.01283130
     atom   31 type  1   force =    -0.05535502   -0.06545807    0.05535502
     atom   32 type  1   force =    -0.11146611   -0.00334897   -0.00334983
     atom   33 type  1   force =    -0.15833668   -0.08747304    0.15833399
     atom   34 type  1   force =     0.15293891   -0.03755851   -0.46242193
     atom   35 type  1   force =    -0.01594661    0.17962227   -0.12689238
     atom   36 type  1   force =    -0.58040362   -0.22661029   -0.22661190
     atom   37 type  1   force =     0.46242205   -0.03755844   -0.15294224
     atom   38 type  1   force =     0.22661032    0.58040453   -0.22661193
     atom   39 type  1   force =     0.03755698   -0.46242064   -0.15293889
     atom   40 type  1   force =    -0.55060901    0.20788298    0.20787982
     atom   41 type  1   force =     0.12688892    0.17962225    0.01594486
     atom   42 type  1   force =     0.15293891   -0.46242193   -0.03755851
     atom   43 type  1   force =    -1.81914502   -1.88219732    1.81914377
     atom   44 type  1   force =    -0.09388292    0.09388127    0.09388127
     atom   45 type  1   force =     0.00334634   -0.00334719    0.11146350
     atom   46 type  1   force =     0.22661014   -0.22661014    0.58040089
     atom   47 type  1   force =    -0.20788130    0.20787970    0.55060622
     atom   48 type  1   force =    -0.15833642    0.15833599   -0.08747649
     atom   49 type  1   force =    -1.81914563    1.81914438   -1.88219911
     atom   50 type  1   force =    -0.15526264    0.15526354    0.05428032
     atom   51 type  1   force =     0.46241825   -0.15293878   -0.03755867
     atom   52 type  1   force =     1.88219792    1.81914675    1.81914429
     atom   53 type  1   force =    -0.20788151    0.55061357    0.20787990
     atom   54 type  1   force =    -0.17962129   -0.12689144    0.01594153
     atom   55 type  1   force =     0.12688900    0.01594813    0.17961893
     atom   56 type  1   force =    -0.05428212    0.15526022    0.15526022
     atom   57 type  1   force =    -0.01594660   -0.12689151    0.17962228
     atom   58 type  1   force =    -0.15526363    0.05428206    0.15526006
     atom   59 type  1   force =     0.00334643    0.11146689   -0.00334895
     atom   60 type  1   force =     0.08747316    0.15833422    0.15833330
     atom   61 type  1   force =     0.03755691   -0.15293894   -0.46242201
     atom   62 type  1   force =    -0.17962050    0.01594487   -0.12689237
     atom   63 type  2   force =     2.38011746   -2.38011746   -2.38011746
     The core correction contribution to forces
     atom    1 type  1   force =     0.00000000    0.00000000    0.00000000
     atom    2 type  1   force =     0.00000000    0.00000000    0.00000000
     atom    3 type  1   force =     0.00000000    0.00000000    0.00000000
     atom    4 type  1   force =     0.00000000    0.00000000    0.00000000
     atom    5 type  1   force =     0.00000000    0.00000000    0.00000000
     atom    6 type  1   force =     0.00000000    0.00000000    0.00000000
     atom    7 type  1   force =     0.00000000    0.00000000    0.00000000
     atom    8 type  1   force =     0.00000000    0.00000000    0.00000000
     atom    9 type  1   force =     0.00000000    0.00000000    0.00000000
     atom   10 type  1   force =     0.00000000    0.00000000    0.00000000
     atom   11 type  1   force =     0.00000000    0.00000000    0.00000000
     atom   12 type  1   force =     0.00000000    0.00000000    0.00000000
     atom   13 type  1   force =     0.00000000    0.00000000    0.00000000
     atom   14 type  1   force =     0.00000000    0.00000000    0.00000000
     atom   15 type  1   force =     0.00000000    0.00000000    0.00000000
     atom   16 type  1   force =     0.00000000    0.00000000    0.00000000
     atom   17 type  1   force =     0.00000000    0.00000000    0.00000000
     atom   18 type  1   force =     0.00000000    0.00000000    0.00000000
     atom   19 type  1   force =     0.00000000    0.00000000    0.00000000
     atom   20 type  1   force =     0.00000000    0.00000000    0.00000000
     atom   21 type  1   force =     0.00000000    0.00000000    0.00000000
     atom   22 type  1   force =     0.00000000    0.00000000    0.00000000
     atom   23 type  1   force =     0.00000000    0.00000000    0.00000000
     atom   24 type  1   force =     0.00000000    0.00000000    0.00000000
     atom   25 type  1   force =     0.00000000    0.00000000    0.00000000
     atom   26 type  1   force =     0.00000000    0.00000000    0.00000000
     atom   27 type  1   force =     0.00000000    0.00000000    0.00000000
     atom   28 type  1   force =     0.00000000    0.00000000    0.00000000
     atom   29 type  1   force =     0.00000000    0.00000000    0.00000000
     atom   30 type  1   force =     0.00000000    0.00000000    0.00000000
     atom   31 type  1   force =     0.00000000    0.00000000    0.00000000
     atom   32 type  1   force =     0.00000000    0.00000000    0.00000000
     atom   33 type  1   force =     0.00000000    0.00000000    0.00000000
     atom   34 type  1   force =     0.00000000    0.00000000    0.00000000
     atom   35 type  1   force =     0.00000000    0.00000000    0.00000000
     atom   36 type  1   force =     0.00000000    0.00000000    0.00000000
     atom   37 type  1   force =     0.00000000    0.00000000    0.00000000
     atom   38 type  1   force =     0.00000000    0.00000000    0.00000000
     atom   39 type  1   force =     0.00000000    0.00000000    0.00000000
     atom   40 type  1   force =     0.00000000    0.00000000    0.00000000
     atom   41 type  1   force =     0.00000000    0.00000000    0.00000000
     atom   42 type  1   force =     0.00000000    0.00000000    0.00000000
     atom   43 type  1   force =     0.00000000    0.00000000    0.00000000
     atom   44 type  1   force =     0.00000000    0.00000000    0.00000000
     atom   45 type  1   force =     0.00000000    0.00000000    0.00000000
     atom   46 type  1   force =     0.00000000    0.00000000    0.00000000
     atom   47 type  1   force =     0.00000000    0.00000000    0.00000000
     atom   48 type  1   force =     0.00000000    0.00000000    0.00000000
     atom   49 type  1   force =     0.00000000    0.00000000    0.00000000
     atom   50 type  1   force =     0.00000000    0.00000000    0.00000000
     atom   51 type  1   force =     0.00000000    0.00000000    0.00000000
     atom   52 type  1   force =     0.00000000    0.00000000    0.00000000
     atom   53 type  1   force =     0.00000000    0.00000000    0.00000000
     atom   54 type  1   force =     0.00000000    0.00000000    0.00000000
     atom   55 type  1   force =     0.00000000    0.00000000    0.00000000
     atom   56 type  1   force =     0.00000000    0.00000000    0.00000000
     atom   57 type  1   force =     0.00000000    0.00000000    0.00000000
     atom   58 type  1   force =     0.00000000    0.00000000    0.00000000
     atom   59 type  1   force =     0.00000000    0.00000000    0.00000000
     atom   60 type  1   force =     0.00000000    0.00000000    0.00000000
     atom   61 type  1   force =     0.00000000    0.00000000    0.00000000
     atom   62 type  1   force =     0.00000000    0.00000000    0.00000000
     atom   63 type  2   force =     0.00000000    0.00000000    0.00000000
     The Hubbard contrib.    to forces
     atom    1 type  1   force =     0.00000000    0.00000000    0.00000000
     atom    2 type  1   force =     0.00000000    0.00000000    0.00000000
     atom    3 type  1   force =     0.00000000    0.00000000    0.00000000
     atom    4 type  1   force =     0.00000000    0.00000000    0.00000000
     atom    5 type  1   force =     0.00000000    0.00000000    0.00000000
     atom    6 type  1   force =     0.00000000    0.00000000    0.00000000
     atom    7 type  1   force =     0.00000000    0.00000000    0.00000000
     atom    8 type  1   force =     0.00000000    0.00000000    0.00000000
     atom    9 type  1   force =     0.00000000    0.00000000    0.00000000
     atom   10 type  1   force =     0.00000000    0.00000000    0.00000000
     atom   11 type  1   force =     0.00000000    0.00000000    0.00000000
     atom   12 type  1   force =     0.00000000    0.00000000    0.00000000
     atom   13 type  1   force =     0.00000000    0.00000000    0.00000000
     atom   14 type  1   force =     0.00000000    0.00000000    0.00000000
     atom   15 type  1   force =     0.00000000    0.00000000    0.00000000
     atom   16 type  1   force =     0.00000000    0.00000000    0.00000000
     atom   17 type  1   force =     0.00000000    0.00000000    0.00000000
     atom   18 type  1   force =     0.00000000    0.00000000    0.00000000
     atom   19 type  1   force =     0.00000000    0.00000000    0.00000000
     atom   20 type  1   force =     0.00000000    0.00000000    0.00000000
     atom   21 type  1   force =     0.00000000    0.00000000    0.00000000
     atom   22 type  1   force =     0.00000000    0.00000000    0.00000000
     atom   23 type  1   force =     0.00000000    0.00000000    0.00000000
     atom   24 type  1   force =     0.00000000    0.00000000    0.00000000
     atom   25 type  1   force =     0.00000000    0.00000000    0.00000000
     atom   26 type  1   force =     0.00000000    0.00000000    0.00000000
     atom   27 type  1   force =     0.00000000    0.00000000    0.00000000
     atom   28 type  1   force =     0.00000000    0.00000000    0.00000000
     atom   29 type  1   force =     0.00000000    0.00000000    0.00000000
     atom   30 type  1   force =     0.00000000    0.00000000    0.00000000
     atom   31 type  1   force =     0.00000000    0.00000000    0.00000000
     atom   32 type  1   force =     0.00000000    0.00000000    0.00000000
     atom   33 type  1   force =     0.00000000    0.00000000    0.00000000
     atom   34 type  1   force =     0.00000000    0.00000000    0.00000000
     atom   35 type  1   force =     0.00000000    0.00000000    0.00000000
     atom   36 type  1   force =     0.00000000    0.00000000    0.00000000
     atom   37 type  1   force =     0.00000000    0.00000000    0.00000000
     atom   38 type  1   force =     0.00000000    0.00000000    0.00000000
     atom   39 type  1   force =     0.00000000    0.00000000    0.00000000
     atom   40 type  1   force =     0.00000000    0.00000000    0.00000000
     atom   41 type  1   force =     0.00000000    0.00000000    0.00000000
     atom   42 type  1   force =     0.00000000    0.00000000    0.00000000
     atom   43 type  1   force =     0.00000000    0.00000000    0.00000000
     atom   44 type  1   force =     0.00000000    0.00000000    0.00000000
     atom   45 type  1   force =     0.00000000    0.00000000    0.00000000
     atom   46 type  1   force =     0.00000000    0.00000000    0.00000000
     atom   47 type  1   force =     0.00000000    0.00000000    0.00000000
     atom   48 type  1   force =     0.00000000    0.00000000    0.00000000
     atom   49 type  1   force =     0.00000000    0.00000000    0.00000000
     atom   50 type  1   force =     0.00000000    0.00000000    0.00000000
     atom   51 type  1   force =     0.00000000    0.00000000    0.00000000
     atom   52 type  1   force =     0.00000000    0.00000000    0.00000000
     atom   53 type  1   force =     0.00000000    0.00000000    0.00000000
     atom   54 type  1   force =     0.00000000    0.00000000    0.00000000
     atom   55 type  1   force =     0.00000000    0.00000000    0.00000000
     atom   56 type  1   force =     0.00000000    0.00000000    0.00000000
     atom   57 type  1   force =     0.00000000    0.00000000    0.00000000
     atom   58 type  1   force =     0.00000000    0.00000000    0.00000000
     atom   59 type  1   force =     0.00000000    0.00000000    0.00000000
     atom   60 type  1   force =     0.00000000    0.00000000    0.00000000
     atom   61 type  1   force =     0.00000000    0.00000000    0.00000000
     atom   62 type  1   force =     0.00000000    0.00000000    0.00000000
     atom   63 type  2   force =     0.00000000    0.00000000    0.00000000
     The SCF correction term to forces
     atom    1 type  1   force =    -0.00000791    0.00000791    0.00000791
     atom    2 type  1   force =     0.00000506   -0.00000506   -0.00000444
     atom    3 type  1   force =    -0.00000473    0.00000473    0.00002154
     atom    4 type  1   force =     0.00000743   -0.00000743   -0.00000019
     atom    5 type  1   force =     0.00000444   -0.00000506   -0.00000506
     atom    6 type  1   force =     0.00000285    0.00001702   -0.00000285
     atom    7 type  1   force =     0.00001157   -0.00001002   -0.00001651
     atom    8 type  1   force =    -0.00000065    0.00001549    0.00000786
     atom    9 type  1   force =    -0.00002154    0.00000473    0.00000473
     atom   10 type  1   force =     0.00001651   -0.00001002   -0.00001157
     atom   11 type  1   force =    -0.00000473    0.00002154    0.00000473
     atom   12 type  1   force =     0.00001002   -0.00001651   -0.00001157
     atom   13 type  1   force =     0.00000019   -0.00000743   -0.00000743
     atom   14 type  1   force =    -0.00000786    0.00001549    0.00000065
     atom   15 type  1   force =     0.00001157   -0.00001651   -0.00001002
     atom   16 type  1   force =    -0.00001202   -0.00000055    0.00001202
     atom   17 type  1   force =     0.00000506   -0.00000444   -0.00000506
     atom   18 type  1   force =    -0.00001702   -0.00000285   -0.00000285
     atom   19 type  1   force =     0.00001002   -0.00001157   -0.00001651
     atom   20 type  1   force =    -0.00001549    0.00000065    0.00000786
     atom   21 type  1   force =     0.00000285   -0.00000285    0.00001702
     atom   22 type  1   force =    -0.00001202    0.00001202   -0.00000055
     atom   23 type  1   force =     0.00000051   -0.00000051   -0.00000815
     atom   24 type  1   force =     0.00001651   -0.00001157   -0.00001002
     atom   25 type  1   force =     0.00000055    0.00001202    0.00001202
     atom   26 type  1   force =     0.00000743   -0.00000019   -0.00000743
     atom   27 type  1   force =    -0.00001549    0.00000786    0.00000065
     atom   28 type  1   force =    -0.00000786    0.00000065    0.00001549
     atom   29 type  1   force =     0.00000815   -0.00000051   -0.00000051
     atom   30 type  1   force =    -0.00000065    0.00000786    0.00001549
     atom   31 type  1   force =     0.00000051   -0.00000815   -0.00000051
     atom   32 type  1   force =    -0.00000314    0.00001109    0.00001109
     atom   33 type  1   force =     0.00000477   -0.00000557   -0.00000477
     atom   34 type  1   force =    -0.00000558    0.00000541    0.00000654
     atom   35 type  1   force =     0.00000959   -0.00000489   -0.00000278
     atom   36 type  1   force =     0.00000029   -0.00001144   -0.00001144
     atom   37 type  1   force =    -0.00000654    0.00000541    0.00000558
     atom   38 type  1   force =     0.00001144   -0.00000029   -0.00001144
     atom   39 type  1   force =    -0.00000541    0.00000654    0.00000558
     atom   40 type  1   force =    -0.00002356    0.00000409    0.00000409
     atom   41 type  1   force =     0.00000278   -0.00000489   -0.00000959
     atom   42 type  1   force =    -0.00000558    0.00000654    0.00000541
     atom   43 type  1   force =     0.00000944   -0.00002188   -0.00000944
     atom   44 type  1   force =     0.00000396   -0.00000396   -0.00000396
     atom   45 type  1   force =    -0.00001109    0.00001109    0.00000314
     atom   46 type  1   force =     0.00001144   -0.00001144   -0.00000029
     atom   47 type  1   force =    -0.00000409    0.00000409    0.00002356
     atom   48 type  1   force =     0.00000477   -0.00000477   -0.00000557
     atom   49 type  1   force =     0.00000944   -0.00000944   -0.00002188
     atom   50 type  1   force =    -0.00000993    0.00000993    0.00000254
     atom   51 type  1   force =    -0.00000654    0.00000558    0.00000541
     atom   52 type  1   force =     0.00002188   -0.00000944   -0.00000944
     atom   53 type  1   force =    -0.00000409    0.00002356    0.00000409
     atom   54 type  1   force =     0.00000489   -0.00000278   -0.00000959
     atom   55 type  1   force =     0.00000278   -0.00000959   -0.00000489
     atom   56 type  1   force =    -0.00000254    0.00000993    0.00000993
     atom   57 type  1   force =     0.00000959   -0.00000278   -0.00000489
     atom   58 type  1   force =    -0.00000993    0.00000254    0.00000993
     atom   59 type  1   force =    -0.00001109    0.00000314    0.00001109
     atom   60 type  1   force =     0.00000557   -0.00000477   -0.00000477
     atom   61 type  1   force =    -0.00000541    0.00000558    0.00000654
     atom   62 type  1   force =     0.00000489   -0.00000959   -0.00000278
     atom   63 type  2   force =    -0.00000323    0.00000323    0.00000323

     Total force =     0.127699     Total SCF correction =     0.000129

     BFGS Geometry Optimization

     number of scf cycles    =   1
     number of bfgs steps    =   0

     energy   new            =    -724.6824965962 Ry

     new trust radius        =       0.0637034713 bohr
     new conv_thr            =       0.0000000100 Ry


ATOMIC_POSITIONS (crystal)
C        0.000152971  -0.000152971  -0.000152971
C        0.750020448   0.249979585  -0.001485740
C        0.499892774   0.500107226   0.000084367
C        0.250152418   0.749847549   0.000447359
C        0.001485740   0.249979585   0.249979618
C        0.749739271   0.495481482   0.250260795
C        0.497762513   0.747618625   0.253193772
C        0.251245850   0.000896643   0.250435913
C       -0.000084367   0.500107226   0.500107293
C        0.746806261   0.747618625   0.502237554
C        0.499892774   0.000084367   0.500107226
C        0.252381375   0.253193755   0.502237554
C       -0.000447359   0.749847549   0.749847549
C        0.749564120   0.000896643   0.748754117
C        0.497762513   0.253193739   0.747618691
C        0.250911200   0.500229678   0.749088833
C        0.750020448  -0.001485740   0.249979618
C        0.504518518   0.250260795   0.250260762
C        0.252381342   0.502237487   0.253193805
C       -0.000896643   0.748754117   0.250435946
C        0.749739271   0.250260745   0.495481549
C        0.250911200   0.749088767   0.500229778
C       -0.000132988   0.000132988   0.500384995
[...]
     atom   10 type  1   force =     0.00000000    0.00000000    0.00000000
     atom   11 type  1   force =     0.00000000    0.00000000    0.00000000
     atom   12 type  1   force =     0.00000000    0.00000000    0.00000000
     atom   13 type  1   force =     0.00000000    0.00000000    0.00000000
     atom   14 type  1   force =     0.00000000    0.00000000    0.00000000
     atom   15 type  1   force =     0.00000000    0.00000000    0.00000000
     atom   16 type  1   force =     0.00000000    0.00000000    0.00000000
     atom   17 type  1   force =     0.00000000    0.00000000    0.00000000
     atom   18 type  1   force =     0.00000000    0.00000000    0.00000000
     atom   19 type  1   force =     0.00000000    0.00000000    0.00000000
     atom   20 type  1   force =     0.00000000    0.00000000    0.00000000
     atom   21 type  1   force =     0.00000000    0.00000000    0.00000000
     atom   22 type  1   force =     0.00000000    0.00000000    0.00000000
     atom   23 type  1   force =     0.00000000    0.00000000    0.00000000
     atom   24 type  1   force =     0.00000000    0.00000000    0.00000000
     atom   25 type  1   force =     0.00000000    0.00000000    0.00000000
     atom   26 type  1   force =     0.00000000    0.00000000    0.00000000
     atom   27 type  1   force =     0.00000000    0.00000000    0.00000000
     atom   28 type  1   force =     0.00000000    0.00000000    0.00000000
     atom   29 type  1   force =     0.00000000    0.00000000    0.00000000
     atom   30 type  1   force =     0.00000000    0.00000000    0.00000000
     atom   31 type  1   force =     0.00000000    0.00000000    0.00000000
     atom   32 type  1   force =     0.00000000    0.00000000    0.00000000
     atom   33 type  1   force =     0.00000000    0.00000000    0.00000000
     atom   34 type  1   force =     0.00000000    0.00000000    0.00000000
     atom   35 type  1   force =     0.00000000    0.00000000    0.00000000
     atom   36 type  1   force =     0.00000000    0.00000000    0.00000000
     atom   37 type  1   force =     0.00000000    0.00000000    0.00000000
     atom   38 type  1   force =     0.00000000    0.00000000    0.00000000
     atom   39 type  1   force =     0.00000000    0.00000000    0.00000000
     atom   40 type  1   force =     0.00000000    0.00000000    0.00000000
     atom   41 type  1   force =     0.00000000    0.00000000    0.00000000
     atom   42 type  1   force =     0.00000000    0.00000000    0.00000000
     atom   43 type  1   force =     0.00000000    0.00000000    0.00000000
     atom   44 type  1   force =     0.00000000    0.00000000    0.00000000
     atom   45 type  1   force =     0.00000000    0.00000000    0.00000000
     atom   46 type  1   force =     0.00000000    0.00000000    0.00000000
     atom   47 type  1   force =     0.00000000    0.00000000    0.00000000
     atom   48 type  1   force =     0.00000000    0.00000000    0.00000000
     atom   49 type  1   force =     0.00000000    0.00000000    0.00000000
     atom   50 type  1   force =     0.00000000    0.00000000    0.00000000
     atom   51 type  1   force =     0.00000000    0.00000000    0.00000000
     atom   52 type  1   force =     0.00000000    0.00000000    0.00000000
     atom   53 type  1   force =     0.00000000    0.00000000    0.00000000
     atom   54 type  1   force =     0.00000000    0.00000000    0.00000000
     atom   55 type  1   force =     0.00000000    0.00000000    0.00000000
     atom   56 type  1   force =     0.00000000    0.00000000    0.00000000
     atom   57 type  1   force =     0.00000000    0.00000000    0.00000000
     atom   58 type  1   force =     0.00000000    0.00000000    0.00000000
     atom   59 type  1   force =     0.00000000    0.00000000    0.00000000
     atom   60 type  1   force =     0.00000000    0.00000000    0.00000000
     atom   61 type  1   force =     0.00000000    0.00000000    0.00000000
     atom   62 type  1   force =     0.00000000    0.00000000    0.00000000
     atom   63 type  2   force =     0.00000000    0.00000000    0.00000000
     The Hubbard contrib.    to forces
     atom    1 type  1   force =     0.00000000    0.00000000    0.00000000
     atom    2 type  1   force =     0.00000000    0.00000000    0.00000000
     atom    3 type  1   force =     0.00000000    0.00000000    0.00000000
     atom    4 type  1   force =     0.00000000    0.00000000    0.00000000
     atom    5 type  1   force =     0.00000000    0.00000000    0.00000000
     atom    6 type  1   force =     0.00000000    0.00000000    0.00000000
     atom    7 type  1   force =     0.00000000    0.00000000    0.00000000
     atom    8 type  1   force =     0.00000000    0.00000000    0.00000000
     atom    9 type  1   force =     0.00000000    0.00000000    0.00000000
     atom   10 type  1   force =     0.00000000    0.00000000    0.00000000
     atom   11 type  1   force =     0.00000000    0.00000000    0.00000000
     atom   12 type  1   force =     0.00000000    0.00000000    0.00000000
     atom   13 type  1   force =     0.00000000    0.00000000    0.00000000
     atom   14 type  1   force =     0.00000000    0.00000000    0.00000000
     atom   15 type  1   force =     0.00000000    0.00000000    0.00000000
     atom   16 type  1   force =     0.00000000    0.00000000    0.00000000
     atom   17 type  1   force =     0.00000000    0.00000000    0.00000000
     atom   18 type  1   force =     0.00000000    0.00000000    0.00000000
     atom   19 type  1   force =     0.00000000    0.00000000    0.00000000
     atom   20 type  1   force =     0.00000000    0.00000000    0.00000000
     atom   21 type  1   force =     0.00000000    0.00000000    0.00000000
     atom   22 type  1   force =     0.00000000    0.00000000    0.00000000
     atom   23 type  1   force =     0.00000000    0.00000000    0.00000000
     atom   24 type  1   force =     0.00000000    0.00000000    0.00000000
     atom   25 type  1   force =     0.00000000    0.00000000    0.00000000
     atom   26 type  1   force =     0.00000000    0.00000000    0.00000000
     atom   27 type  1   force =     0.00000000    0.00000000    0.00000000
     atom   28 type  1   force =     0.00000000    0.00000000    0.00000000
     atom   29 type  1   force =     0.00000000    0.00000000    0.00000000
     atom   30 type  1   force =     0.00000000    0.00000000    0.00000000
     atom   31 type  1   force =     0.00000000    0.00000000    0.00000000
     atom   32 type  1   force =     0.00000000    0.00000000    0.00000000
     atom   33 type  1   force =     0.00000000    0.00000000    0.00000000
     atom   34 type  1   force =     0.00000000    0.00000000    0.00000000
     atom   35 type  1   force =     0.00000000    0.00000000    0.00000000
     atom   36 type  1   force =     0.00000000    0.00000000    0.00000000
     atom   37 type  1   force =     0.00000000    0.00000000    0.00000000
     atom   38 type  1   force =     0.00000000    0.00000000    0.00000000
     atom   39 type  1   force =     0.00000000    0.00000000    0.00000000
     atom   40 type  1   force =     0.00000000    0.00000000    0.00000000
     atom   41 type  1   force =     0.00000000    0.00000000    0.00000000
     atom   42 type  1   force =     0.00000000    0.00000000    0.00000000
     atom   43 type  1   force =     0.00000000    0.00000000    0.00000000
     atom   44 type  1   force =     0.00000000    0.00000000    0.00000000
     atom   45 type  1   force =     0.00000000    0.00000000    0.00000000
     atom   46 type  1   force =     0.00000000    0.00000000    0.00000000
     atom   47 type  1   force =     0.00000000    0.00000000    0.00000000
     atom   48 type  1   force =     0.00000000    0.00000000    0.00000000
     atom   49 type  1   force =     0.00000000    0.00000000    0.00000000
     atom   50 type  1   force =     0.00000000    0.00000000    0.00000000
     atom   51 type  1   force =     0.00000000    0.00000000    0.00000000
     atom   52 type  1   force =     0.00000000    0.00000000    0.00000000
     atom   53 type  1   force =     0.00000000    0.00000000    0.00000000
     atom   54 type  1   force =     0.00000000    0.00000000    0.00000000
     atom   55 type  1   force =     0.00000000    0.00000000    0.00000000
     atom   56 type  1   force =     0.00000000    0.00000000    0.00000000
     atom   57 type  1   force =     0.00000000    0.00000000    0.00000000
     atom   58 type  1   force =     0.00000000    0.00000000    0.00000000
     atom   59 type  1   force =     0.00000000    0.00000000    0.00000000
     atom   60 type  1   force =     0.00000000    0.00000000    0.00000000
     atom   61 type  1   force =     0.00000000    0.00000000    0.00000000
     atom   62 type  1   force =     0.00000000    0.00000000    0.00000000
     atom   63 type  2   force =     0.00000000    0.00000000    0.00000000
     The SCF correction term to forces
     atom    1 type  1   force =     0.00000087   -0.00000087   -0.00000087
     atom    2 type  1   force =     0.00000097   -0.00000097   -0.00000061
     atom    3 type  1   force =    -0.00000088    0.00000088    0.00000012
     atom    4 type  1   force =    -0.00000087    0.00000087   -0.00000066
     atom    5 type  1   force =     0.00000061   -0.00000097   -0.00000097
     atom    6 type  1   force =    -0.00000005    0.00000027    0.00000005
     atom    7 type  1   force =    -0.00000058    0.00000058   -0.00000139
     atom    8 type  1   force =    -0.00000093   -0.00000101   -0.00000103
     atom    9 type  1   force =    -0.00000012    0.00000088    0.00000088
     atom   10 type  1   force =     0.00000139    0.00000058    0.00000058
     atom   11 type  1   force =    -0.00000088    0.00000012    0.00000088
     atom   12 type  1   force =    -0.00000058   -0.00000139    0.00000058
     atom   13 type  1   force =     0.00000066    0.00000087    0.00000087
     atom   14 type  1   force =     0.00000103   -0.00000101    0.00000093
     atom   15 type  1   force =    -0.00000058   -0.00000139    0.00000058
     atom   16 type  1   force =    -0.00000112    0.00000133    0.00000112
     atom   17 type  1   force =     0.00000097   -0.00000061   -0.00000097
     atom   18 type  1   force =    -0.00000027    0.00000005    0.00000005
     atom   19 type  1   force =    -0.00000058    0.00000058   -0.00000139
     atom   20 type  1   force =     0.00000101    0.00000093   -0.00000103
     atom   21 type  1   force =    -0.00000005    0.00000005    0.00000027
     atom   22 type  1   force =    -0.00000112    0.00000112    0.00000133
     atom   23 type  1   force =     0.00000117   -0.00000117    0.00000136
     atom   24 type  1   force =     0.00000139    0.00000058    0.00000058
     atom   25 type  1   force =    -0.00000133    0.00000112    0.00000112
     atom   26 type  1   force =    -0.00000087   -0.00000066    0.00000087
     atom   27 type  1   force =     0.00000101   -0.00000103    0.00000093
     atom   28 type  1   force =     0.00000103    0.00000093   -0.00000101
     atom   29 type  1   force =    -0.00000136   -0.00000117   -0.00000117
     atom   30 type  1   force =    -0.00000093   -0.00000103   -0.00000101
     atom   31 type  1   force =     0.00000117    0.00000136   -0.00000117
     atom   32 type  1   force =    -0.00000057   -0.00000156   -0.00000156
     atom   33 type  1   force =     0.00000083   -0.00000055   -0.00000083
     atom   34 type  1   force =    -0.00000033    0.00000087   -0.00000050
     atom   35 type  1   force =    -0.00000136   -0.00000023   -0.00000148
     atom   36 type  1   force =    -0.00000012   -0.00000026   -0.00000026
     atom   37 type  1   force =     0.00000050    0.00000087    0.00000033
     atom   38 type  1   force =     0.00000026    0.00000012   -0.00000026
     atom   39 type  1   force =    -0.00000087   -0.00000050    0.00000033
     atom   40 type  1   force =    -0.00000007    0.00000159    0.00000159
     atom   41 type  1   force =     0.00000148   -0.00000023    0.00000136
     atom   42 type  1   force =    -0.00000033   -0.00000050    0.00000087
     atom   43 type  1   force =    -0.00000096   -0.00000076    0.00000096
     atom   44 type  1   force =    -0.00000018    0.00000018    0.00000018
     atom   45 type  1   force =     0.00000156   -0.00000156    0.00000057
     atom   46 type  1   force =     0.00000026   -0.00000026    0.00000012
     atom   47 type  1   force =    -0.00000159    0.00000159    0.00000007
     atom   48 type  1   force =     0.00000083   -0.00000083   -0.00000055
     atom   49 type  1   force =    -0.00000096    0.00000096   -0.00000076
     atom   50 type  1   force =    -0.00000006    0.00000006    0.00000018
     atom   51 type  1   force =     0.00000050    0.00000033    0.00000087
     atom   52 type  1   force =     0.00000076    0.00000096    0.00000096
     atom   53 type  1   force =    -0.00000159    0.00000007    0.00000159
     atom   54 type  1   force =     0.00000023   -0.00000148    0.00000136
     atom   55 type  1   force =     0.00000148    0.00000136   -0.00000023
     atom   56 type  1   force =    -0.00000018    0.00000006    0.00000006
     atom   57 type  1   force =    -0.00000136   -0.00000148   -0.00000023
     atom   58 type  1   force =    -0.00000006    0.00000018    0.00000006
     atom   59 type  1   force =     0.00000156    0.00000057   -0.00000156
     atom   60 type  1   force =     0.00000055   -0.00000083   -0.00000083
     atom   61 type  1   force =    -0.00000087    0.00000033   -0.00000050
     atom   62 type  1   force =     0.00000023    0.00000136   -0.00000148
     atom   63 type  2   force =    -0.00000001    0.00000001    0.00000001

     Total force =     0.000224     Total SCF correction =     0.000012

     bfgs converged in  10 scf cycles and   9 bfgs steps
     (criteria: energy <  1.0E-05 Ry, force <  1.0E-04 Ry/Bohr)

     End of BFGS Geometry Optimization

     Final energy   =    -724.6973699044 Ry
Begin final coordinates

ATOMIC_POSITIONS (crystal)
C        0.000189672  -0.000189672  -0.000189672
C        0.749558362   0.250441671  -0.000778885
C        0.500100114   0.499899886  -0.000519446
C        0.250534348   0.749465619  -0.000959578
C        0.000778885   0.250441671   0.250441704
C        0.748446164   0.496676240   0.251553902
C        0.497857423   0.748729551   0.250836224
C        0.250770143   0.000813116   0.250031022
C        0.000519446   0.499899886   0.499899953
C        0.749163809   0.748729551   0.502142644
C        0.500100114  -0.000519446   0.499899886
C        0.251270449   0.250836207   0.502142644
C        0.000959578   0.749465619   0.749465619
C        0.749969011   0.000813116   0.749229824
C        0.497857423   0.250836191   0.748729617
C        0.251527906   0.498202119   0.748472127
C        0.749558362  -0.000778885   0.250441704
C        0.503323760   0.251553902   0.251553869
C        0.251270416   0.502142577   0.250836257
C       -0.000813116   0.749229824   0.250031055
C        0.748446164   0.251553852   0.496676307
C        0.251527906   0.748472061   0.498202219
C       -0.000526001   0.000526001   0.500253955
C        0.749163809   0.502142577   0.748729551
C        0.501797915   0.748472061   0.748472061
C        0.250534381  -0.000959578   0.749465685
C       -0.000813116   0.250031022   0.749229824
C        0.749969011   0.749229824   0.000813116
C        0.499746045   0.000526001   0.000526001
C        0.250770143   0.250031022   0.000813116
C       -0.000526001   0.500253955   0.000526001
C        0.125452359   0.125292464   0.125292481
C        0.875196908   0.374904405   0.124803142
C        0.623637941   0.623600668   0.126446238
C        0.375670966   0.876206004   0.123464466
C        0.126459829   0.375719707   0.375719741
C        0.873553762   0.623600668   0.376362126
C        0.624280293   0.873540154   0.375719741
C        0.376399366   0.126446213   0.376362059
C        0.126466551   0.624136895   0.624136962
C        0.876535601   0.876206004   0.624329068
C        0.623637941   0.126446238   0.623600668
C        0.363475616   0.361521478   0.636524418
C        0.125605990   0.874394043   0.874394043
C        0.874707586   0.125292431   0.874547691
C        0.624280293   0.375719707   0.873540221
C        0.375863072   0.624136962   0.873533499
C        0.875196908   0.124803100   0.374904472
C        0.363475616   0.636524418   0.361521512
C        0.123693372   0.876306611   0.375575143
C        0.873553829   0.376362059   0.623600668
C        0.638478522   0.636524351   0.636524418
C        0.375863072   0.873533365   0.624136962
C        0.123793979   0.123464449   0.624329135
C        0.876535601   0.624329001   0.876206071
C        0.624424891   0.876306678   0.876306678
C        0.375670966   0.123464449   0.876206004
C        0.123693389   0.375575109   0.876306678
C        0.874707586   0.874547624   0.125292464
C        0.625095595   0.124803142   0.124803159
C        0.376399366   0.376362059   0.126446238
C        0.123793962   0.624329068   0.123464466
N        0.631367719   0.368632281   0.368632281
End final coordinates



     Writing output data file di.save
 
     init_run     :      1.17s CPU      1.47s WALL (       1 calls)
     electrons    :    206.49s CPU    211.92s WALL (      10 calls)
     update_pot   :      0.83s CPU      1.12s WALL (       9 calls)
     forces       :      3.81s CPU      3.84s WALL (      10 calls)

     Called by init_run:
     wfcinit      :      0.72s CPU      0.81s WALL (       1 calls)
     wfcinit:atom :      0.01s CPU      0.01s WALL (       2 calls)
     wfcinit:wfcr :      0.68s CPU      0.75s WALL (       2 calls)
     potinit      :      0.07s CPU      0.08s WALL (       1 calls)

     Called by electrons:
     c_bands      :    191.81s CPU    196.17s WALL (      90 calls)
     sum_band     :     10.40s CPU     10.49s WALL (      90 calls)
     v_of_rho     :      3.38s CPU      3.40s WALL (      94 calls)
     v_h          :      0.09s CPU      0.09s WALL (      94 calls)
     v_xc         :      3.29s CPU      3.31s WALL (      94 calls)
     mix_rho      :      0.55s CPU      0.57s WALL (      90 calls)

     Called by c_bands:
     init_us_2    :      1.66s CPU      1.67s WALL (     382 calls)
     cegterg      :    181.35s CPU    185.51s WALL (     180 calls)

     Called by sum_band:

     Called by *egterg:
     h_psi        :     79.10s CPU     79.81s WALL (     852 calls)
     g_psi        :      0.50s CPU      0.50s WALL (     670 calls)
     cdiaghg      :     64.25s CPU     65.65s WALL (     820 calls)
     cegterg:over :     15.47s CPU     15.48s WALL (     670 calls)
     cegterg:upda :     12.29s CPU     12.38s WALL (     670 calls)
     cegterg:last :      5.18s CPU      5.22s WALL (     190 calls)
     cdiaghg:chol :      2.83s CPU      2.90s WALL (     820 calls)
     cdiaghg:inve :      1.20s CPU      1.20s WALL (     820 calls)
     cdiaghg:para :     10.29s CPU     11.11s WALL (    1640 calls)

     Called by h_psi:
     h_psi:pot    :     78.03s CPU     78.74s WALL (     852 calls)
     h_psi:calbec :     16.45s CPU     16.57s WALL (     852 calls)
     vloc_psi     :     44.91s CPU     45.31s WALL (     852 calls)
     add_vuspsi   :     16.67s CPU     16.86s WALL (     852 calls)

     General routines
     calbec       :     18.92s CPU     19.04s WALL (     932 calls)
     fft          :      1.06s CPU      1.14s WALL (    1988 calls)
     fftw         :     47.16s CPU     47.73s WALL (  180256 calls)
 
     Parallel routines
     fft_scatter  :     14.45s CPU     13.97s WALL (  182244 calls)
 
     PWSCF        :  3m34.23s CPU     3m51.52s WALL

 
   This run was terminated on:  19: 7:12  25Oct2018            

=------------------------------------------------------------------------------=
   JOB DONE.
=------------------------------------------------------------------------------=
